<?xml version="1.0"?>
<VTKFile type="UnstructuredGrid"  version="0.1"  >
<UnstructuredGrid>
<Piece  NumberOfPoints="7753" NumberOfCells="38952">
<Points>
<DataArray  type="Float64"  NumberOfComponents="3"  format="ascii">0 0.15 0  0 0.175 0  0.025 0.175 0  0.025 0.175 0.025  0 0.15 0.025  0 0.175 0.025  0.025 0.2 0  0.025 0.2 0.025  0 0.2 0  0 0.2 0.025  0.05 0.175 0  0.05 0.2 0  0.05 0.2 0.025  0.075 0.2 0  0.075 0.2 0.025  0.025 0.225 0  0.025 0.225 0.025  0 0.225 0  0 0.225 0.025  0.05 0.225 0  0.05 0.225 0.025  0.075 0.225 0  0.075 0.225 0.025  0.1 0.2 0  0.1 0.225 0  0.1 0.225 0.025  0.125 0.225 0  0.125 0.225 0.025  0.025 0.25 0  0.025 0.25 0.025  0 0.25 0  0 0.25 0.025  0.05 0.25 0  0.05 0.25 0.025  0.075 0.25 0  0.075 0.25 0.025  0.1 0.25 0  0.1 0.25 0.025  0.125 0.25 0  0.125 0.25 0.025  0.15 0.25 0.025  0.025 0.275 0  0.025 0.275 0.025  0 0.275 0  0 0.275 0.025  0.05 0.275 0  0.05 0.275 0.025  0.075 0.275 0  0.075 0.275 0.025  0.1 0.275 0  0.1 0.275 0.025  0.125 0.275 0  0.125 0.275 0.025  0.15 0.275 0.025  0.025 0.3 0  0.025 0.3 0.025  0 0.3 0  0 0.3 0.025  0.05 0.3 0  0.05 0.3 0.025  0.075 0.3 0  0.075 0.3 0.025  0.1 0.3 0  0.1 0.3 0.025  0.125 0.3 0  0.125 0.3 0.025  0.15 0.3 0.025  0.025 0.325 0  0.025 0.325 0.025  0 0.325 0  0 0.325 0.025  0.05 0.325 0  0.05 0.325 0.025  0.075 0.325 0  0.075 0.325 0.025  0.1 0.325 0  0.1 0.325 0.025  0.125 0.325 0.025  0.025 0.35 0  0.025 0.35 0.025  0 0.35 0  0 0.35 0.025  0.05 0.35 0  0.05 0.35 0.025  0.075 0.35 0  0.075 0.35 0.025  0.1 0.35 0  0.1 0.35 0.025  0.125 0.35 0.025  0.025 0.375 0  0.025 0.375 0.025  0 0.375 0  0 0.375 0.025  0.05 0.375 0  0.05 0.375 0.025  0.075 0.375 0  0.075 0.375 0.025  0.1 0.375 0  0.1 0.375 0.025  0.125 0.375 0.025  0.025 0.4 0  0.025 0.4 0.025  0 0.4 0  0 0.4 0.025  0.05 0.4 0  0.05 0.4 0.025  0.075 0.4 0  0.075 0.4 0.025  0.1 0.4 0  0.1 0.4 0.025  0.125 0.4 0.025  0.025 0.425 0  0.025 0.425 0.025  0 0.425 0  0 0.425 0.025  0.05 0.425 0  0.05 0.425 0.025  0.075 0.425 0  0.075 0.425 0.025  0.1 0.425 0.025  0.025 0.45 0  0.025 0.45 0.025  0 0.45 0  0 0.45 0.025  0.05 0.45 0  0.05 0.45 0.025  0.075 0.45 0  0.075 0.45 0.025  0.1 0.45 0.025  0.025 0.475 0  0.025 0.475 0.025  0 0.475 0  0 0.475 0.025  0.05 0.475 0  0.05 0.475 0.025  0.075 0.475 0  0.075 0.475 0.025  0.1 0.475 0.025  0.025 0.5 0  0.025 0.5 0.025  0 0.5 0  0 0.5 0.025  0.05 0.5 0  0.05 0.5 0.025  0.075 0.5 0  0.075 0.5 0.025  0.1 0.5 0.025  0.025 0.525 0  0.025 0.525 0.025  0 0.525 0  0 0.525 0.025  0.05 0.525 0  0.05 0.525 0.025  0.075 0.525 0  0.075 0.525 0.025  0.1 0.525 0.025  0.025 0.55 0  0.025 0.55 0.025  0 0.55 0  0 0.55 0.025  0.05 0.55 0  0.05 0.55 0.025  0.075 0.55 0  0.075 0.55 0.025  0.1 0.55 0.025  0.1 0.55 0  0.025 0.575 0  0.025 0.575 0.025  0 0.575 0  0 0.575 0.025  0.05 0.575 0  0.05 0.575 0.025  0.075 0.575 0  0.075 0.575 0.025  0.1 0.575 0  0.1 0.575 0.025  0.025 0.6 0  0.025 0.6 0.025  0 0.6 0  0 0.6 0.025  0.05 0.6 0  0.05 0.6 0.025  0.075 0.6 0  0.075 0.6 0.025  0.1 0.6 0  0.1 0.6 0.025  0.125 0.6 0  0.125 0.6 0.025  0.025 0.625 0  0.025 0.625 0.025  0 0.625 0  0 0.625 0.025  0.05 0.625 0  0.05 0.625 0.025  0.075 0.625 0  0.075 0.625 0.025  0.1 0.625 0  0.1 0.625 0.025  0.125 0.625 0  0.125 0.625 0.025  0.025 0.65 0  0.025 0.65 0.025  0 0.65 0  0 0.65 0.025  0.05 0.65 0  0.05 0.65 0.025  0.075 0.65 0  0.075 0.65 0.025  0.1 0.65 0  0.1 0.65 0.025  0.125 0.65 0  0.125 0.65 0.025  0.15 0.65 0.025  0.025 0.675 0  0.025 0.675 0.025  0 0.675 0  0 0.675 0.025  0.05 0.675 0  0.05 0.675 0.025  0.075 0.675 0  0.075 0.675 0.025  0.1 0.675 0  0.1 0.675 0.025  0.125 0.675 0  0.125 0.675 0.025  0.15 0.675 0.025  0.025 0.7 0  0.025 0.7 0.025  0 0.7 0  0 0.7 0.025  0.05 0.7 0  0.05 0.7 0.025  0.075 0.7 0  0.075 0.7 0.025  0.1 0.7 0  0.1 0.7 0.025  0.125 0.7 0  0.125 0.7 0.025  0.15 0.7 0.025  0.15 0.7 0  0.025 0.725 0  0.025 0.725 0.025  0 0.725 0  0 0.725 0.025  0.05 0.725 0  0.05 0.725 0.025  0.075 0.725 0  0.075 0.725 0.025  0.1 0.725 0  0.1 0.725 0.025  0.125 0.725 0  0.125 0.725 0.025  0.15 0.725 0  0.15 0.725 0.025  0.025 0.75 0  0.025 0.75 0.025  0 0.75 0  0 0.75 0.025  0.05 0.75 0  0.05 0.75 0.025  0.075 0.75 0  0.075 0.75 0.025  0.1 0.75 0  0.1 0.75 0.025  0.125 0.75 0  0.125 0.75 0.025  0.15 0.75 0  0.15 0.75 0.025  0.175 0.75 0.025  0.025 0.775 0  0.025 0.775 0.025  0 0.775 0  0 0.775 0.025  0.05 0.775 0  0.05 0.775 0.025  0.075 0.775 0  0.075 0.775 0.025  0.1 0.775 0  0.1 0.775 0.025  0.125 0.775 0  0.125 0.775 0.025  0.15 0.775 0  0.15 0.775 0.025  0.175 0.775 0.025  0.025 0.8 0  0.025 0.8 0.025  0 0.8 0  0 0.8 0.025  0.05 0.8 0  0.05 0.8 0.025  0.075 0.8 0  0.075 0.8 0.025  0.1 0.8 0  0.1 0.8 0.025  0.125 0.8 0  0.125 0.8 0.025  0.15 0.8 0  0.15 0.8 0.025  0.175 0.8 0.025  0.025 0.825 0  0.025 0.825 0.025  0 0.825 0  0 0.825 0.025  0.05 0.825 0  0.05 0.825 0.025  0.075 0.825 0  0.075 0.825 0.025  0.1 0.825 0  0.1 0.825 0.025  0.125 0.825 0  0.125 0.825 0.025  0.15 0.825 0  0.15 0.825 0.025  0.175 0.825 0.025  0.025 0.85 0  0.025 0.85 0.025  0 0.85 0  0 0.85 0.025  0.05 0.85 0  0.05 0.85 0.025  0.075 0.85 0  0.075 0.85 0.025  0.1 0.85 0  0.1 0.85 0.025  0.125 0.85 0  0.125 0.85 0.025  0.15 0.85 0  0.15 0.85 0.025  0.175 0.85 0.025  0.175 0.85 0  0.025 0.875 0  0.025 0.875 0.025  0 0.875 0  0 0.875 0.025  0.05 0.875 0  0.05 0.875 0.025  0.075 0.875 0  0.075 0.875 0.025  0.1 0.875 0  0.1 0.875 0.025  0.125 0.875 0  0.125 0.875 0.025  0.15 0.875 0  0.15 0.875 0.025  0.175 0.875 0  0.175 0.875 0.025  0.2 0.875 0.025  0.025 0.9 0  0.025 0.9 0.025  0 0.9 0  0 0.9 0.025  0.05 0.9 0  0.05 0.9 0.025  0.075 0.9 0  0.075 0.9 0.025  0.1 0.9 0  0.1 0.9 0.025  0.125 0.9 0  0.125 0.9 0.025  0.15 0.9 0  0.15 0.9 0.025  0.175 0.9 0  0.175 0.9 0.025  0.2 0.9 0.025  0.2 0.9 0  0.025 0.925 0  0.025 0.925 0.025  0 0.925 0  0 0.925 0.025  0.05 0.925 0  0.05 0.925 0.025  0.075 0.925 0  0.075 0.925 0.025  0.1 0.925 0  0.1 0.925 0.025  0.125 0.925 0  0.125 0.925 0.025  0.15 0.925 0  0.15 0.925 0.025  0.175 0.925 0  0.175 0.925 0.025  0.2 0.925 0  0.2 0.925 0.025  0.225 0.925 0.025  0.025 0.95 0  0.025 0.95 0.025  0 0.95 0  0 0.95 0.025  0.05 0.95 0  0.05 0.95 0.025  0.075 0.95 0  0.075 0.95 0.025  0.1 0.95 0  0.1 0.95 0.025  0.125 0.95 0  0.125 0.95 0.025  0.15 0.95 0  0.15 0.95 0.025  0.175 0.95 0  0.175 0.95 0.025  0.2 0.95 0  0.2 0.95 0.025  0.225 0.95 0.025  0.025 0.975 0  0.025 0.975 0.025  0 0.975 0  0 0.975 0.025  0.05 0.975 0  0.05 0.975 0.025  0.075 0.975 0  0.075 0.975 0.025  0.1 0.975 0  0.1 0.975 0.025  0.125 0.975 0  0.125 0.975 0.025  0.15 0.975 0  0.15 0.975 0.025  0.175 0.975 0  0.175 0.975 0.025  0.2 0.975 0  0.2 0.975 0.025  0.225 0.975 0.025  0.225 0.975 0  0.025 1 0  0.025 1 0.025  0 1 0  0 1 0.025  0.05 1 0  0.05 1 0.025  0.075 1 0  0.075 1 0.025  0.1 1 0  0.1 1 0.025  0.125 1 0  0.125 1 0.025  0.15 1 0  0.15 1 0.025  0.175 1 0  0.175 1 0.025  0.2 1 0  0.2 1 0.025  0.225 1 0  0.225 1 0.025  0.025 0.175 0.05  0 0.15 0.05  0 0.175 0.05  0.025 0.2 0.05  0 0.2 0.05  0.05 0.2 0.05  0.025 0.225 0.05  0 0.225 0.05  0.05 0.225 0.05  0.075 0.225 0.05  0.075 0.2 0.05  0.1 0.225 0.05  0.025 0.25 0.05  0 0.25 0.05  0.05 0.25 0.05  0.075 0.25 0.05  0.1 0.25 0.05  0.125 0.25 0.05  0.125 0.225 0.05  0.025 0.275 0.05  0 0.275 0.05  0.05 0.275 0.05  0.075 0.275 0.05  0.1 0.275 0.05  0.125 0.275 0.05  0.15 0.275 0.05  0.175 0.275 0.05  0.025 0.3 0.05  0 0.3 0.05  0.05 0.3 0.05  0.075 0.3 0.05  0.1 0.3 0.05  0.125 0.3 0.05  0.15 0.3 0.05  0.175 0.3 0.05  0.025 0.325 0.05  0 0.325 0.05  0.05 0.325 0.05  0.075 0.325 0.05  0.1 0.325 0.05  0.125 0.325 0.05  0.15 0.325 0.05  0.025 0.35 0.05  0 0.35 0.05  0.05 0.35 0.05  0.075 0.35 0.05  0.1 0.35 0.05  0.125 0.35 0.05  0.15 0.35 0.05  0.025 0.375 0.05  0 0.375 0.05  0.05 0.375 0.05  0.075 0.375 0.05  0.1 0.375 0.05  0.125 0.375 0.05  0.15 0.375 0.05  0.025 0.4 0.05  0 0.4 0.05  0.05 0.4 0.05  0.075 0.4 0.05  0.1 0.4 0.05  0.125 0.4 0.05  0.15 0.4 0.05  0.025 0.425 0.05  0 0.425 0.05  0.05 0.425 0.05  0.075 0.425 0.05  0.1 0.425 0.05  0.125 0.425 0.05  0.025 0.45 0.05  0 0.45 0.05  0.05 0.45 0.05  0.075 0.45 0.05  0.1 0.45 0.05  0.125 0.45 0.05  0.025 0.475 0.05  0 0.475 0.05  0.05 0.475 0.05  0.075 0.475 0.05  0.1 0.475 0.05  0.125 0.475 0.05  0.025 0.5 0.05  0 0.5 0.05  0.05 0.5 0.05  0.075 0.5 0.05  0.1 0.5 0.05  0.025 0.525 0.05  0 0.525 0.05  0.05 0.525 0.05  0.075 0.525 0.05  0.1 0.525 0.05  0.025 0.55 0.05  0 0.55 0.05  0.05 0.55 0.05  0.075 0.55 0.05  0.1 0.55 0.05  0.125 0.55 0.05  0.025 0.575 0.05  0 0.575 0.05  0.05 0.575 0.05  0.075 0.575 0.05  0.1 0.575 0.05  0.125 0.575 0.05  0.025 0.6 0.05  0 0.6 0.05  0.05 0.6 0.05  0.075 0.6 0.05  0.1 0.6 0.05  0.125 0.6 0.05  0.025 0.625 0.05  0 0.625 0.05  0.05 0.625 0.05  0.075 0.625 0.05  0.1 0.625 0.05  0.125 0.625 0.05  0.15 0.625 0.05  0.025 0.65 0.05  0 0.65 0.05  0.05 0.65 0.05  0.075 0.65 0.05  0.1 0.65 0.05  0.125 0.65 0.05  0.15 0.65 0.05  0.025 0.675 0.05  0 0.675 0.05  0.05 0.675 0.05  0.075 0.675 0.05  0.1 0.675 0.05  0.125 0.675 0.05  0.15 0.675 0.05  0.025 0.7 0.05  0 0.7 0.05  0.05 0.7 0.05  0.075 0.7 0.05  0.1 0.7 0.05  0.125 0.7 0.05  0.15 0.7 0.05  0.175 0.7 0.05  0.025 0.725 0.05  0 0.725 0.05  0.05 0.725 0.05  0.075 0.725 0.05  0.1 0.725 0.05  0.125 0.725 0.05  0.15 0.725 0.05  0.175 0.725 0.05  0.025 0.75 0.05  0 0.75 0.05  0.05 0.75 0.05  0.075 0.75 0.05  0.1 0.75 0.05  0.125 0.75 0.05  0.15 0.75 0.05  0.175 0.75 0.05  0.025 0.775 0.05  0 0.775 0.05  0.05 0.775 0.05  0.075 0.775 0.05  0.1 0.775 0.05  0.125 0.775 0.05  0.15 0.775 0.05  0.175 0.775 0.05  0.025 0.8 0.05  0 0.8 0.05  0.05 0.8 0.05  0.075 0.8 0.05  0.1 0.8 0.05  0.125 0.8 0.05  0.15 0.8 0.05  0.175 0.8 0.05  0.2 0.8 0.05  0.025 0.825 0.05  0 0.825 0.05  0.05 0.825 0.05  0.075 0.825 0.05  0.1 0.825 0.05  0.125 0.825 0.05  0.15 0.825 0.05  0.175 0.825 0.05  0.2 0.825 0.05  0.025 0.85 0.05  0 0.85 0.05  0.05 0.85 0.05  0.075 0.85 0.05  0.1 0.85 0.05  0.125 0.85 0.05  0.15 0.85 0.05  0.175 0.85 0.05  0.2 0.85 0.05  0.025 0.875 0.05  0 0.875 0.05  0.05 0.875 0.05  0.075 0.875 0.05  0.1 0.875 0.
[...]
<PointData  Vectors="f_123"> 
<DataArray  type="Float64"  Name="f_123"  NumberOfComponents="3" format="ascii">-1.0036712825840290e+01 -3.7268388612363221e-06 5.2038724440507371e-05  -1.0038508167235738e+01 -3.9655311499352588e-06 5.6870102023280546e-05  -1.0034550247423883e+01 -1.6985449509288617e-03 -1.2641836423206653e-03  -1.0039758251571705e+01 -1.7962673975306139e-03 -2.5151923491981542e-03  -1.0038757231976009e+01 -2.2287557806530381e-06 -1.3212256553728980e-04  -1.0040682968630012e+01 -1.5686008928886231e-06 -1.4120652545198368e-04  -1.0036127811949157e+01 -1.6281720981294165e-03 -1.3332064123029450e-03  -1.0041554906264610e+01 -1.7124304640053383e-03 -2.6704621324260339e-03  -1.0040229046646310e+01 -4.1552191453450439e-06 6.1351524869594892e-05  -1.0042512757054942e+01 -1.0766840231558553e-06 -1.4890442854123572e-04  -1.0030008487272942e+01 -3.1821127954820600e-03 -1.4270649132647334e-03  -1.0031345944647562e+01 -3.0699769193973402e-03 -1.5193527126007383e-03  -1.0039348787358936e+01 -3.2024458265860435e-03 -3.6885721349856591e-03  -1.0026025601516560e+01 -4.2609310816574776e-03 -1.5881271729325506e-03  -1.0036169269354614e+01 -4.4195698807646538e-03 -4.1124774860463219e-03  -1.0037636596551197e+01 -1.5359239732329977e-03 -1.3922164115652200e-03  -1.0043249785567122e+01 -1.6086197806613690e-03 -2.8047656949818848e-03  -1.0041853493970377e+01 -4.3003481553410439e-06 6.5409696364904430e-05  -1.0044228094582911e+01 -7.0633146237432271e-07 -1.5545447253763158e-04  -1.0032643142321245e+01 -2.9103807994423883e-03 -1.5994100840081989e-03  -1.0040916931287752e+01 -3.0259229433164296e-03 -3.8947549807568484e-03  -1.0027071015003399e+01 -4.0622325626802546e-03 -1.6810731465821461e-03  -1.0037581763307010e+01 -4.2021941140091825e-03 -4.3615625478155874e-03  -1.0020699817093965e+01 -5.1823603845301556e-03 -1.5612793972336922e-03  -1.0021487343094897e+01 -4.9697508795107977e-03 -1.6597297312652259e-03  -1.0033916412509441e+01 -5.1228557893129648e-03 -4.4531099642401636e-03  -1.0016096429928441e+01 -5.6339768403617990e-03 -1.5899059697831515e-03  -1.0030130655434965e+01 -5.7921853364659255e-03 -4.3645699549690721e-03  -1.0039055651509232e+01 -1.4272967971567427e-03 -1.4427288260832410e-03  -1.0044827881396831e+01 -1.4899307528742211e-03 -2.9207624691840219e-03  -1.0043365099656061e+01 -4.4078357685724728e-06 6.9018259772750290e-05  -1.0045815263022602e+01 -4.2578902824755213e-07 -1.6103992014028244e-04  -1.0033876515559985e+01 -2.7150330410650237e-03 -1.6687011670943313e-03  -1.0042378053908632e+01 -2.8154486191123663e-03 -4.0743504221784042e-03  -1.0028079629017491e+01 -3.8065736432859299e-03 -1.7623138792743488e-03  -1.0038899274590781e+01 -3.9293137530639639e-03 -4.5804904451719726e-03  -1.0022261194015048e+01 -4.6791536321628916e-03 -1.7466204292858267e-03  -1.0035078765767773e+01 -4.8146837396776734e-03 -4.6918495491445880e-03  -1.0016642007372711e+01 -5.3298027688539196e-03 -1.6782112043321566e-03  -1.0031140990394123e+01 -5.4711171577238298e-03 -4.6104699473532938e-03  -1.0027256925286011e+01 -5.9102307784403285e-03 -4.4145642825499107e-03  -1.0040369238498583e+01 -1.3063986278672281e-03 -1.4859166349057730e-03  -1.0046277787104470e+01 -1.3601652784516209e-03 -3.0206163322890191e-03  -1.0044751599880009e+01 -4.4849569119473093e-06 7.2174369834564006e-05  -1.0047264109764971e+01 -2.1340449748030781e-07 -1.6580266024577927e-04  -1.0035028002272535e+01 -2.4927321060059598e-03 -1.7284486433752242e-03  -1.0043721279285725e+01 -2.5795397804842840e-03 -4.2299899501760758e-03  -1.0029032325624861e+01 -3.5074865844423389e-03 -1.8329075687690847e-03  -1.0040112389877491e+01 -3.6143558860286169e-03 -4.7715711459199641e-03  -1.0023003004477015e+01 -4.3282279783095380e-03 -1.8227078866000796e-03  -1.0036148129343950e+01 -4.4471371127144240e-03 -4.9017607877864999e-03  -1.0017175426786997e+01 -4.9494905470378533e-03 -1.7561181816478043e-03  -1.0032066688938453e+01 -5.0743940387699225e-03 -4.8282393844539390e-03  -1.0028047430320994e+01 -5.5036478228855977e-03 -4.6320928340815009e-03  -1.0041565533140293e+01 -1.1763360253430190e-03 -1.5226993404798851e-03  -1.0047590921379213e+01 -1.2221927079575053e-03 -3.1060888045241269e-03  -1.0046003861428968e+01 -4.5384814665452556e-06 7.4886400646590937e-05  -1.0048567172405026e+01 -5.3705692281087658e-08 -1.6985346832684353e-04  -1.0036083781572367e+01 -2.2501581989254602e-03 -1.7796645292715331e-03  -1.0044938165648052e+01 -2.3246274964796045e-03 -4.3639282320391930e-03  -1.0029914066425000e+01 -3.1753838657869152e-03 -1.8937908416709359e-03  -1.0041213341326147e+01 -3.2675857219784453e-03 -4.9369474032540418e-03  -1.0023697819819926e+01 -3.9308380083981371e-03 -1.8887342063320825e-03  -1.0037118620769409e+01 -4.0340705546845204e-03 -5.0845103199330857e-03  -1.0017683082983842e+01 -4.5097011140489461e-03 -1.8241339134950053e-03  -1.0032904750348100e+01 -4.6187985007738915e-03 -5.0189425032137157e-03  -1.0028758808598337e+01 -5.0262931128529972e-03 -4.8236676315862974e-03  -1.0042635679960181e+01 -1.0394722640669743e-03 -1.5538042451050560e-03  -1.0048760903641430e+01 -1.0781890515070187e-03 -3.1786144653901897e-03  -1.0047115129702190e+01 -4.5742727970549909e-06 7.7167355118262773e-05  -1.0049719025714227e+01 6.4745629297319914e-08 -1.7327947945984670e-04  -1.0037033313844590e+01 -1.9924145017623670e-03 -1.8231823340277942e-03  -1.0046022271662823e+01 -2.0555996242928348e-03 -4.4780707225895704e-03  -1.0030713101827628e+01 -2.8183087286062520e-03 -1.9457726886425921e-03  -1.0042195920360371e+01 -2.8968887984258652e-03 -5.0785295178160913e-03  -1.0024333613973724e+01 -3.4978705498375081e-03 -1.9453845707219054e-03  -1.0037985156913711e+01 -3.5863049501605117e-03 -5.2417116027862511e-03  -1.0033652028443194e+01 -4.1177052041243313e-03 -5.1837673046167976e-03  -1.0043573087814787e+01 -8.9760790563145321e-04 -1.5798092216076582e-03  -1.0049783054591474e+01 -9.2980379927799632e-04 -3.2393592707090435e-03  -1.0048080458947512e+01 -4.5971711713159445e-06 7.9031236428967735e-05  -1.0050715782816118e+01 1.5062586167781984e-07 -1.7614955008227873e-04  -1.0037868606264981e+01 -1.7234099567023028e-03 -1.8596849106446139e-03  -1.0046968761847083e+01 -1.7761793802849291e-03 -4.5740095636044118e-03  -1.0031420320779892e+01 -2.4424872501600261e-03 -1.9895394761237765e-03  -1.0043055284532867e+01 -2.5083363571904928e-03 -5.1979755995223186e-03  -1.0024900827014504e+01 -3.0378762730056282e-03 -1.9932679105722590e-03  -1.0038743542626472e+01 -3.1122971785830268e-03 -5.3748431824927351e-03  -1.0034305617817044e+01 -3.5817533569039669e-03 -5.3238945471109122e-03  -1.0044372896125658e+01 -7.5211245479748058e-04 -1.6011729424158954e-03  -1.0050653997842160e+01 -7.7828173385039682e-04 -3.2892648624766839e-03  -1.0048896274613856e+01 -4.6109903900893608e-06 8.0491004630819165e-05  -1.0051554709081808e+01 2.1066178627398856e-07 -1.7851809402151078e-04  -1.0038583647744561e+01 -1.4461397157095413e-03 -1.8897270004432421e-03  -1.0047774067798251e+01 -1.4892004472952132e-03 -4.6530580589325028e-03  -1.0032028725877707e+01 -2.0527437675123814e-03 -2.0256636347060885e-03  -1.0043787737932684e+01 -2.1066057096824249e-03 -5.2966922272405480e-03  -1.0025391954675182e+01 -2.5575745678332032e-03 -2.0329094105429671e-03  -1.0039390432017610e+01 -2.6186600029908880e-03 -5.4852078290885536e-03  -1.0034863021402359e+01 -3.0194013834785893e-03 -5.4404205276703020e-03  -1.0045031567155327e+01 -6.0402415517165980e-04 -1.6182564528565131e-03  -1.0051371343554999e+01 -6.2455561688092769e-04 -3.3290819344924403e-03  -1.0049560035454183e+01 -4.6185386769671846e-06 8.1557397207513061e-05  -1.0052233922105323e+01 2.5017162396628034e-07 -1.8042783304888867e-04  -1.0039173973440830e+01 -1.1628979337148994e-03 -1.9137528889997344e-03  -1.0048435606826454e+01 -1.1968147016570563e-03 -4.7162804243322306e-03  -1.0032533015391467e+01 -1.6528218260959866e-03 -2.0546127935588080e-03  -1.0044390521541375e+01 -1.6953022929796725e-03 -5.3758433989010476e-03  -1.0025801200192840e+01 -2.0622567475256119e-03 -2.0647488414597820e-03  -1.0039923235997176e+01 -2.1105730547694339e-03 -5.5739135976415307e-03  -1.0035322200384533e+01 -2.4373857345369671e-03 -5.5343118202200951e-03  -1.0045546574822909e+01 -4.5412853902615996e-04 -1.6313386313426452e-03  -1.0051933439657601e+01 -4.6931949433365170e-04 -3.3593951325320689e-03  -1.0050069973841769e+01 -4.6216508619918702e-06 8.2238228437386745e-05  -1.0052752160066996e+01 2.7342938753040693e-07 -1.8191177077681261e-04  -1.0039636330782097e+01 -8.7544501205087048e-04 -1.9321099200506678e-03  -1.0048951554441315e+01 -9.0065503910478971e-04 -4.7645160483735637e-03  -1.0032929255439612e+01 -1.2456394753424208e-03 -2.0767580026623835e-03  -1.0044861629423481e+01 -1.2772143518005106e-03 -5.4363618993681735e-03  -1.0040340014934438e+01 -1.5921153528660871e-03 -5.6418664348591076e-03  -1.0045916170273081e+01 -3.0302258335087668e-04 -1.6406272121007801e-03  -1.0052339179981272e+01 -3.1308888567024265e-04 -3.3806413488216853e-03  -1.0050424899718770e+01 -4.6212056352243088e-06 8.2537944757170878e-05  -1.0053108606487921e+01 2.8392468753727726e-07 -1.8299459581925346e-04  -1.0039968427329306e+01 -5.8514384098005631e-04 -1.9450585927825806e-03  -1.0049320665958765e+01 -6.0196788196230887e-04 -4.7983984427422202e-03  -1.0033214628643588e+01 -8.3349889713600601e-04 -2.0923805239962687e-03  -1.0045199657083518e+01 -8.5452123341990982e-04 -5.4789602503451480e-03  -1.0040639376989503e+01 -1.0665417665560294e-03 -5.6897685628417814e-03  -1.0046139210824679e+01 -1.5116914267640340e-04 -1.6462664618543702e-03  -1.0052587861581422e+01 -1.5625211070257849e-04 -3.3931227501005400e-03  -1.0050624058251170e+01 -4.6171242087682775e-06 8.2457316878661874e-05  -1.0053302763193662e+01 2.8454692872433685e-07 -1.8369365503545987e-04  -1.0040168746773361e+01 -2.9307502911744078e-04 -1.9527798233100911e-03  -1.0049542142824899e+01 -3.0172522908047033e-04 -4.8183693421833349e-03  -1.0033387248795535e+01 -4.1826457888644519e-04 -2.1016770464721002e-03  -1.0045403684010449e+01 -4.2896995578251522e-04 -5.5041399137608421e-03  -1.0040820392919493e+01 -5.3652011491148080e-04 -5.7181194098420282e-03  -1.0046215043377741e+01 1.0550250709204361e-06 -1.6483422325296786e-03  -1.0052679085796344e+01 8.8422688588340978e-07 -3.3970154719599062e-03  -1.0050667034556758e+01 -4.6083474022152880e-06 8.1993188016542764e-05  -1.0053334366028354e+01 2.7772258651801484e-07 -1.8401958814095074e-04  -1.0040236423741394e+01 -1.3828014613982388e-07 -1.9553798016833037e-03  -1.0049615540119902e+01 -7.2327671084429060e-07 -4.8246884267301761e-03  -1.0033446033934961e+01 -1.5205389920823423e-06 -2.1047633156215115e-03  -1.0045473190605243e+01 -2.0307611149607161e-06 -5.5121981482624937e-03  -1.0040882532947375e+01 -4.3416875728105179e-06 -5.7272172935990632e-03  -1.0046143436594273e+01 1.5331512505902163e-04 -1.6468848316933996e-03  -1.0052612699440527e+01 1.5805329649866529e-04 -3.3923745837887587e-03  -1.0050553701318840e+01 -4.5927809931092066e-06 8.1138235591229991e-05  -1.0053203339900811e+01 2.6552034116943018e-07 -1.8397667858522450e-04  -1.0040171171408021e+01 2.9285463052931311e-04 -1.9528927349188277e-03  -1.0049540712744712e+01 3.0032707692031753e-04 -4.8174390379942837e-03  -1.0033390632736628e+01 4.1528522595457086e-04 -2.1016762204057234e-03  -1.0045408009105024e+01 4.2496009658082135e-04 -5.5032322816523822e-03  -1.0040825628493582e+01 5.2788457659377333e-04 -5.7171608807701675e-03  -1.0045924558719543e+01 3.0527600542678142e-04 -1.6418699520194546e-03  -1.0052388774071883e+01 3.1498774597700068e-04 -3.3791356687941200e-03  -1.0050284207071449e+01 -4.5672052588456026e-06 7.9880711465825938e-05  -1.0052909791408045e+01 2.4973315206816143e-07 -1.8356295025611798e-04  -1.0039973258592383e+01 5.8509078740449829e-04 -1.9452816258698873e-03  -1.0049317798848479e+01 6.0071348522960162e-04 -4.7965301348344321e-03  -1.0033221401319148e+01 8.3070224497966893e-04 -2.0923743594099438e-03  -1.0045208308138452e+01 8.5066348778288254e-04 -5.4771413258426441e-03  -1.0040649860066111e+01 1.0580455443789968e-03 -5.6878499629727563e-03  -1.0026367887246092e+01 1.0353809940004629e-03 -2.1061716834516607e-03  -1.0045559000082722e+01 4.5655979612581533e-04 -1.6332177303363547e-03  -1.0052007622671116e+01 4.7137934296162390e-04 -3.3571131297398969e-03  -1.0049859004675572e+01 -4.5271446808118469e-06 7.8204140559506117e-05  -1.0052454038774654e+01 2.3194682579754548e-07 -1.8277001321228070e-04  -1.0039643535366304e+01 8.7566691660426600e-04 -1.9324371372303054e-03  -1.0048947240117235e+01 8.9963521836266766e-04 -4.7616945834429436e-03  -1.0032939429610908e+01 1.2431387984527073e-03 -2.0767370849823050e-03  -1.0044874610818232e+01 1.2736002258032985e-03 -5.4336249458776138e-03  -1.0026139448352342e+01 1.5492562217746661e-03 -2.0888440109924776e-03  -1.0040355771713337e+01 1.5838369502203522e-03 -5.6389854371005303e-03  -1.0045047841397508e+01 6.0670163015895417e-04 -1.6207898481496899e-03  -1.0051469854401130e+01 6.2683682528262585e-04 -3.3259951156676100e-03  -1.0049278921166904e+01 -4.4666626313486858e-06 7.6086958350744563e-05  -1.0051836680289416e+01 2.1360556261184881e-07 -1.8158263661037640e-04  -1.0039183508446117e+01 1.1634959384564333e-03 -1.9141744430725581e-03  -1.0048429839616361e+01 1.1961120851842310e-03 -4.7124837466360836e-03  -1.0032546618396710e+01 1.6507166104248112e-03 -2.0545619904336404e-03  -1.0044407846664424e+01 1.6920073145515551e-03 -5.3721798628117278e-03  -1.0025821636329095e+01 2.0557559203267543e-03 -2.0643241693710035e-03  -1.0039944311732590e+01 2.1025679881496164e-03 -5.5700686950105639e-03  -1.0019284239077638e+01 2.3733499109150056e-03 -2.0064852419397631e-03  -1.0035347334015569e+01 2.4235360764483511e-03 -5.5306374595003420e-03  -1.0044392771204491e+01 7.5510132745952943e-04 -1.6043844103349430e-03  -1.0050776469541420e+01 7.8084002125980564e-04 -3.2853347437978475e-03  -1.0048545271976153e+01 -4.3781185090770086e-06 7.3502074911711791e-05  -1.0051058704019399e+01 1.9605351267682281e-07 -1.7997800372968379e-04  -1.0038595470035931e+01 1.4472046785476019e-03 -1.8902278576133694e-03  -1.0047766858969212e+01 1.4888847125925928e-03 -4.6482581973669151e-03  -1.0032045810229096e+01 2.0511119945652101e-03 -2.0255607410333836e-03  -1.0043809437945127e+01 2.1036805928800364e-03 -5.2920938669014598e-03  -1.0025417662522754e+01 2.5514806938514351e-03 -2.0323311853107924e-03  -1.0039416898438791e+01 2.6109485374326957e-03 -5.4804009831029817e-03  -1.0018979728870910e+01 2.9421510884549539e-03 -1.9730035717130546e-03  -1.0034894564345210e+01 3.0057482884284421e-03 -5.4358480633891846e-03  -1.0043596258422875e+01 9.0096855343701088e-04 -1.5837281158484315e-03  -1.0049928998285750e+01 9.3268787574455443e-04 -3.2345370323842750e-03  -1.0047660024668399e+01 -4.2516578755010726e-06 7.0416359555627647e-05  -1.0050121643479004e+01 1.8067789903137169e-07 -1.7792455841931574e-04  -1.0037882686587492e+01 1.7250172054848159e-03 -1.8602428690793434e-03  -1.0046960157829073e+01 1.7763007063714437e-03 -4.5681742941068209e-03  -1.0031440979646920e+01 2.4413750924232123e-03 -1.9893531534269978e-03  -1.0043081421062958e+01 2.5057952522209181e-03 -5.1924378220424370e-03  -1.0024931947647795e+01 3.0321917252323573e-03 -1.9924996952307861e-03  -1.0038775508261182e+01 3.1048485040058977e-03 -5.3690838355050221e-03  -1.0018615758236391e+01 3.4907684864162549e-03 -1.9314303761569420e-03  -1.0034343670807482e+01 3.5682242555895452e-03 -5.3184484319025544e-03  -1.0029984245775422e+01 3.8971900446186417e-03 -5.1269914588491800e-03  -1.0042661789414062e+01 1.0432576507865034e-03 -1.5584649457110193e-03  -1.0048929689056912e+01 1.0814370870632494e-03 -3.1728406633790688e-03  -1.0046626020113019e+01 -4.0750808081981346e-06 6.6790051981426788e-05  -1.0049027786400659e+01 1.6872387578688735e-07 -1.7538030105172754e-04  -1.0037049657459132e+01 1.9946158830504959e-03 -1.8237650168510834e-03  -1.0046012379782656e+01 2.0561790870676682e-03 -4.4711663079812060e-03  -1.0030737490735600e+01 2.8177158299136128e-03 -1.9454594128613875e-03  -1.0042226603076193e+01 2.8946928469341781e-03 -5.0720564633911849e-03  -1.0024370351319497e+01 3.4925305888093526e-03 -1.9443771049595122e-03  -1.0038022780590675e+01 3.5790158199771232e-03 -5.2350225303280226e-03  -1.0018198230012066e+01 4.0123094750403147e-03 -1.8813706676976474e-03  -1.0033696728516457e+01 4.1041426010574268e-03 -5.1774888483177052e-03  -1.0029440629328922e+01 4.4728190097189577e-03 -4.9843031845693353e-03  -1.0041594183730250e+01 1.1805886168721380e-03 -1.5281401491601342e-03  -1.0047781754506202e+01 1.2258272092337255e-03 -3.0992933312332465e-03  -1.0045447262846267e+01 -3.8314059045540583e-06 6.2576133633489872e-05  -1.0047780447203346e+01 1.6246420508969403e-07 -1.7229030253317719e-04  -1.0036102458171202e+01 2.2529710565650759e-03 -1.7802248228259872e-03  -1.0044927189964611e+01 2.3256430877263480e-03 -4.3559239251067840e-03  -1.0029942433056139e+01 3.1752427762461928e-03 -1.8932904018412360e-03  -1.0041248751651880e+01 3.2656197219191312e-03 -4.9295596219461465e-03  -1.0023740461913734e+01 3.9256832488269063e-03 -1.8874213669295746e-03  -1.0037162128471874e+01 4.0267360175657574e-03 -5.0769359884687802e-03  -1.0017734632977607e+01 4.4981472964974534e-03 -1.8223658861338129e-03  -1.0032956278254114e+01 4.6049286185717584e-03 -5.0118978495533309e-03  -1.0028816359862967e+01 5.0051289780565830e-03 -4.8173055231803437e-03  -1.0012054402904832e+01 4.8964534930102995e-03 -1.7250530119031953e-03  -1.0040400009754846e+01 1.3111419013226500e-03 -1.4921776345115118e-03  -1.0046489686731237e+01 1.3641838496149057e-03 -3.0127190073100866e-03  -1.0044129297946702e+01 -3.5035407971419776e-06 5.7719764015954696e-05  -1.0046384318828634e+01 1.6160570765914012e-07 -1.6858305460598465e-04  -1.0035049189468483e+01 2.4961180639322083e-03 -1.7289176942570145e-03  -1.0043709570378635e+01 2.5809029905677224e-03 -4.2208654132669813e-03  -1.0029065050257033e+01 3.5076285279854610e-03 -1.8321363792764605e-03  -1.0040152812384941e+01 3.6123923812670061e-03 -4.7633171459086458e-03  -1.0023051949701493e+01 4.3229616084028049e-03 -1.8210008576248981e-03  -1.0036197834226012e+01 4.4394077665386783e-03 -4.8933790619255469e-03  -1.0017234282592128e+01 4.9374606030418494e-03 -1.7539043357136757e-03  -1.0032125275606713e+01 5.0597831724972396e-03 -4.8205297950043163e-03  -1.0011733207810385e+01 5.3577391018127009e-03 -1.6568772592204504e-03  -1.0028112504268732e+01 5.4815287624525632e-03 -4.6251939902268403e-03  -1.0039088132429770e+01 1.4325342414799394e-03 -1.4498477739662515e-03  -1.0045059657879731e+01 1.4942948580661264e-03 -2.9116750415255298e-03  -1.0042679700517516e+01 -3.0506660078304738e-06 5.2158060759846479e-05  -1.0044845927685554e+01 1.7787746897537808e-07 -1.6416502431536981e-04  -1.0033900562717125e+01 2.7188781620754283e-03 -1.6689773896986909e-03  -1.0042366178310846e+01 2.8169734605094162e-03 -4.0641080293050344e-03  -1.0028117278884347e+01 3.8066879564794625e-03 -1.7611548673197263e-03  -1.0038945137706682e+01 3.9269635929037611e-03 -4.5714639923307033e-03  -1.0022316981960822e+01 4.6732892727459454e-03 -1.7443991687147564e-03  -1.0035135090312531e+01 4.8060086850333439e-03 -4.6827876151440311e-03  -1.0016708569339317e+01 5.3166914189348210e-03 -1.6754407801394635e-03  -1.0031206920060464e+01 5.4551156417019294e-03 -4.6022441385875539e-03  -1.0011404156917742e+01 5.7473415639677384e-03 -1.5792074979985393e-03  -1.0027329627117911e+01 5.8864776546952583e-03 -4.4072792407770737e-03  -1.0023600439516009e+01 6.1190375848670748e-03 -4.1459630685050557e-03  -1.0037670442580417e+01 1.5415882119342011e-03 -1.4002208164558426e-03  -1.0043500028522292e+01 1.6132197607676463e-03 -2.7943968789315562e-03  -1.0041108717495876e+01 -2.4835106747015389e-06 4.5820845938342709e-05  -1.0043174228559044e+01 1.8409817794730867e-07 -1.5891241125312074e-04  -1.0032670665159522e+01 2.9144077984186783e-03 -1.5993413646354696e-03  -1.0040905768693197e+01 3.02725036816392