<?xml version="1.0"?>
<VTKFile type="UnstructuredGrid"  version="0.1"  >
<UnstructuredGrid>
<Piece  NumberOfPoints="7652" NumberOfCells="39001">
<Points>
<DataArray  type="Float64"  NumberOfComponents="3"  format="ascii">0.5 0 0  0.525 0 0  0.525 0.025 0  0.525 0.025 0.025  0.525 0 0.025  0.5 0 0.025  0.5 0.025 0  0.5 0.025 0.025  0.55 0 0  0.55 0.025 0  0.55 0.025 0.025  0.55 0 0.025  0.575 0 0  0.575 0.025 0  0.575 0.025 0.025  0.575 0 0.025  0.6 0 0  0.6 0.025 0  0.6 0.025 0.025  0.6 0 0.025  0.625 0 0  0.625 0.025 0  0.625 0.025 0.025  0.625 0 0.025  0.65 0 0  0.65 0.025 0  0.65 0.025 0.025  0.65 0 0.025  0.675 0 0  0.675 0.025 0  0.675 0.025 0.025  0.675 0 0.025  0.7 0 0  0.7 0.025 0  0.7 0.025 0.025  0.7 0 0.025  0.725 0 0  0.725 0.025 0  0.725 0.025 0.025  0.725 0 0.025  0.75 0 0  0.75 0.025 0  0.75 0.025 0.025  0.75 0 0.025  0.775 0 0  0.775 0.025 0  0.775 0.025 0.025  0.775 0 0.025  0.8 0 0  0.8 0.025 0  0.8 0.025 0.025  0.8 0 0.025  0.825 0 0  0.825 0.025 0  0.825 0.025 0.025  0.825 0 0.025  0.85 0 0  0.85 0.025 0  0.85 0.025 0.025  0.85 0 0.025  0.875 0 0  0.875 0.025 0  0.875 0.025 0.025  0.875 0 0.025  0.9 0 0  0.9 0.025 0  0.9 0.025 0.025  0.9 0 0.025  0.925 0 0  0.925 0.025 0  0.925 0.025 0.025  0.925 0 0.025  0.95 0 0  0.95 0.025 0  0.95 0.025 0.025  0.95 0 0.025  0.975 0 0  0.975 0.025 0  0.975 0.025 0.025  0.975 0 0.025  1 0 0  1 0.025 0  1 0.025 0.025  1 0 0.025  0.525 0.05 0  0.525 0.05 0.025  0.55 0.05 0  0.55 0.05 0.025  0.575 0.05 0  0.575 0.05 0.025  0.6 0.05 0  0.6 0.05 0.025  0.625 0.05 0  0.625 0.05 0.025  0.65 0.05 0  0.65 0.05 0.025  0.675 0.05 0  0.675 0.05 0.025  0.7 0.05 0  0.7 0.05 0.025  0.725 0.05 0  0.725 0.05 0.025  0.75 0.05 0  0.75 0.05 0.025  0.775 0.05 0  0.775 0.05 0.025  0.8 0.05 0  0.8 0.05 0.025  0.825 0.05 0  0.825 0.05 0.025  0.85 0.05 0  0.85 0.05 0.025  0.875 0.05 0  0.875 0.05 0.025  0.9 0.05 0  0.9 0.05 0.025  0.925 0.05 0  0.925 0.05 0.025  0.95 0.05 0  0.95 0.05 0.025  0.975 0.05 0  0.975 0.05 0.025  1 0.05 0  1 0.05 0.025  0.55 0.075 0  0.55 0.075 0.025  0.525 0.075 0  0.525 0.075 0.025  0.575 0.075 0  0.575 0.075 0.025  0.6 0.075 0  0.6 0.075 0.025  0.625 0.075 0  0.625 0.075 0.025  0.65 0.075 0  0.65 0.075 0.025  0.675 0.075 0  0.675 0.075 0.025  0.7 0.075 0  0.7 0.075 0.025  0.725 0.075 0  0.725 0.075 0.025  0.75 0.075 0  0.75 0.075 0.025  0.775 0.075 0  0.775 0.075 0.025  0.8 0.075 0  0.8 0.075 0.025  0.825 0.075 0  0.825 0.075 0.025  0.85 0.075 0  0.85 0.075 0.025  0.875 0.075 0  0.875 0.075 0.025  0.9 0.075 0  0.9 0.075 0.025  0.925 0.075 0  0.925 0.075 0.025  0.95 0.075 0  0.95 0.075 0.025  0.975 0.075 0  0.975 0.075 0.025  1 0.075 0  1 0.075 0.025  0.55 0.1 0  0.55 0.1 0.025  0.525 0.1 0  0.525 0.1 0.025  0.575 0.1 0  0.575 0.1 0.025  0.6 0.1 0  0.6 0.1 0.025  0.625 0.1 0  0.625 0.1 0.025  0.65 0.1 0  0.65 0.1 0.025  0.675 0.1 0  0.675 0.1 0.025  0.7 0.1 0  0.7 0.1 0.025  0.725 0.1 0  0.725 0.1 0.025  0.75 0.1 0  0.75 0.1 0.025  0.775 0.1 0  0.775 0.1 0.025  0.8 0.1 0  0.8 0.1 0.025  0.825 0.1 0  0.825 0.1 0.025  0.85 0.1 0  0.85 0.1 0.025  0.875 0.1 0  0.875 0.1 0.025  0.9 0.1 0  0.9 0.1 0.025  0.925 0.1 0  0.925 0.1 0.025  0.95 0.1 0  0.95 0.1 0.025  0.975 0.1 0  0.975 0.1 0.025  1 0.1 0  1 0.1 0.025  0.55 0.125 0  0.55 0.125 0.025  0.525 0.125 0  0.525 0.125 0.025  0.575 0.125 0  0.575 0.125 0.025  0.6 0.125 0  0.6 0.125 0.025  0.625 0.125 0  0.625 0.125 0.025  0.65 0.125 0  0.65 0.125 0.025  0.675 0.125 0  0.675 0.125 0.025  0.7 0.125 0  0.7 0.125 0.025  0.725 0.125 0  0.725 0.125 0.025  0.75 0.125 0  0.75 0.125 0.025  0.775 0.125 0  0.775 0.125 0.025  0.8 0.125 0  0.8 0.125 0.025  0.825 0.125 0  0.825 0.125 0.025  0.85 0.125 0  0.85 0.125 0.025  0.875 0.125 0  0.875 0.125 0.025  0.9 0.125 0  0.9 0.125 0.025  0.925 0.125 0  0.925 0.125 0.025  0.95 0.125 0  0.95 0.125 0.025  0.975 0.125 0  0.975 0.125 0.025  1 0.125 0  1 0.125 0.025  0.55 0.15 0  0.55 0.15 0.025  0.525 0.15 0  0.575 0.15 0  0.575 0.15 0.025  0.6 0.15 0  0.6 0.15 0.025  0.625 0.15 0  0.625 0.15 0.025  0.65 0.15 0  0.65 0.15 0.025  0.675 0.15 0  0.675 0.15 0.025  0.7 0.15 0  0.7 0.15 0.025  0.725 0.15 0  0.725 0.15 0.025  0.75 0.15 0  0.75 0.15 0.025  0.775 0.15 0  0.775 0.15 0.025  0.8 0.15 0  0.8 0.15 0.025  0.825 0.15 0  0.825 0.15 0.025  0.85 0.15 0  0.85 0.15 0.025  0.875 0.15 0  0.875 0.15 0.025  0.9 0.15 0  0.9 0.15 0.025  0.925 0.15 0  0.925 0.15 0.025  0.95 0.15 0  0.95 0.15 0.025  0.975 0.15 0  0.975 0.15 0.025  1 0.15 0  1 0.15 0.025  0.55 0.175 0  0.55 0.175 0.025  0.575 0.175 0  0.575 0.175 0.025  0.6 0.175 0  0.6 0.175 0.025  0.625 0.175 0  0.625 0.175 0.025  0.65 0.175 0  0.65 0.175 0.025  0.675 0.175 0  0.675 0.175 0.025  0.7 0.175 0  0.7 0.175 0.025  0.725 0.175 0  0.725 0.175 0.025  0.75 0.175 0  0.75 0.175 0.025  0.775 0.175 0  0.775 0.175 0.025  0.8 0.175 0  0.8 0.175 0.025  0.825 0.175 0  0.825 0.175 0.025  0.85 0.175 0  0.85 0.175 0.025  0.875 0.175 0  0.875 0.175 0.025  0.9 0.175 0  0.9 0.175 0.025  0.925 0.175 0  0.925 0.175 0.025  0.95 0.175 0  0.95 0.175 0.025  0.975 0.175 0  0.975 0.175 0.025  1 0.175 0  1 0.175 0.025  0.575 0.2 0  0.575 0.2 0.025  0.55 0.2 0  0.55 0.2 0.025  0.6 0.2 0  0.6 0.2 0.025  0.625 0.2 0  0.625 0.2 0.025  0.65 0.2 0  0.65 0.2 0.025  0.675 0.2 0  0.675 0.2 0.025  0.7 0.2 0  0.7 0.2 0.025  0.725 0.2 0  0.725 0.2 0.025  0.75 0.2 0  0.75 0.2 0.025  0.775 0.2 0  0.775 0.2 0.025  0.8 0.2 0  0.8 0.2 0.025  0.825 0.2 0  0.825 0.2 0.025  0.85 0.2 0  0.85 0.2 0.025  0.875 0.2 0  0.875 0.2 0.025  0.9 0.2 0  0.9 0.2 0.025  0.925 0.2 0  0.925 0.2 0.025  0.95 0.2 0  0.95 0.2 0.025  0.975 0.2 0  0.975 0.2 0.025  1 0.2 0  1 0.2 0.025  0.575 0.225 0  0.575 0.225 0.025  0.6 0.225 0  0.6 0.225 0.025  0.625 0.225 0  0.625 0.225 0.025  0.65 0.225 0  0.65 0.225 0.025  0.675 0.225 0  0.675 0.225 0.025  0.7 0.225 0  0.7 0.225 0.025  0.725 0.225 0  0.725 0.225 0.025  0.75 0.225 0  0.75 0.225 0.025  0.775 0.225 0  0.775 0.225 0.025  0.8 0.225 0  0.8 0.225 0.025  0.825 0.225 0  0.825 0.225 0.025  0.85 0.225 0  0.85 0.225 0.025  0.875 0.225 0  0.875 0.225 0.025  0.9 0.225 0  0.9 0.225 0.025  0.925 0.225 0  0.925 0.225 0.025  0.95 0.225 0  0.95 0.225 0.025  0.975 0.225 0  0.975 0.225 0.025  1 0.225 0  1 0.225 0.025  0.6 0.25 0  0.6 0.25 0.025  0.625 0.25 0  0.625 0.25 0.025  0.65 0.25 0  0.65 0.25 0.025  0.675 0.25 0  0.675 0.25 0.025  0.7 0.25 0  0.7 0.25 0.025  0.725 0.25 0  0.725 0.25 0.025  0.75 0.25 0  0.75 0.25 0.025  0.775 0.25 0  0.775 0.25 0.025  0.8 0.25 0  0.8 0.25 0.025  0.825 0.25 0  0.825 0.25 0.025  0.85 0.25 0  0.85 0.25 0.025  0.875 0.25 0  0.875 0.25 0.025  0.9 0.25 0  0.9 0.25 0.025  0.925 0.25 0  0.925 0.25 0.025  0.95 0.25 0  0.95 0.25 0.025  0.975 0.25 0  0.975 0.25 0.025  1 0.25 0  1 0.25 0.025  0.625 0.275 0  0.625 0.275 0.025  0.6 0.275 0  0.6 0.275 0.025  0.65 0.275 0  0.65 0.275 0.025  0.675 0.275 0  0.675 0.275 0.025  0.7 0.275 0  0.7 0.275 0.025  0.725 0.275 0  0.725 0.275 0.025  0.75 0.275 0  0.75 0.275 0.025  0.775 0.275 0  0.775 0.275 0.025  0.8 0.275 0  0.8 0.275 0.025  0.825 0.275 0  0.825 0.275 0.025  0.85 0.275 0  0.85 0.275 0.025  0.875 0.275 0  0.875 0.275 0.025  0.9 0.275 0  0.9 0.275 0.025  0.925 0.275 0  0.925 0.275 0.025  0.95 0.275 0  0.95 0.275 0.025  0.975 0.275 0  0.975 0.275 0.025  1 0.275 0  1 0.275 0.025  0.625 0.3 0  0.625 0.3 0.025  0.6 0.3 0  0.6 0.3 0.025  0.65 0.3 0  0.65 0.3 0.025  0.675 0.3 0  0.675 0.3 0.025  0.7 0.3 0  0.7 0.3 0.025  0.725 0.3 0  0.725 0.3 0.025  0.75 0.3 0  0.75 0.3 0.025  0.775 0.3 0  0.775 0.3 0.025  0.8 0.3 0  0.8 0.3 0.025  0.825 0.3 0  0.825 0.3 0.025  0.85 0.3 0  0.85 0.3 0.025  0.875 0.3 0  0.875 0.3 0.025  0.9 0.3 0  0.9 0.3 0.025  0.925 0.3 0  0.925 0.3 0.025  0.95 0.3 0  0.95 0.3 0.025  0.975 0.3 0  0.975 0.3 0.025  1 0.3 0  1 0.3 0.025  0.625 0.325 0  0.625 0.325 0.025  0.65 0.325 0  0.65 0.325 0.025  0.675 0.325 0  0.675 0.325 0.025  0.7 0.325 0  0.7 0.325 0.025  0.725 0.325 0  0.725 0.325 0.025  0.75 0.325 0  0.75 0.325 0.025  0.775 0.325 0  0.775 0.325 0.025  0.8 0.325 0  0.8 0.325 0.025  0.825 0.325 0  0.825 0.325 0.025  0.85 0.325 0  0.85 0.325 0.025  0.875 0.325 0  0.875 0.325 0.025  0.9 0.325 0  0.9 0.325 0.025  0.925 0.325 0  0.925 0.325 0.025  0.95 0.325 0  0.95 0.325 0.025  0.975 0.325 0  0.975 0.325 0.025  1 0.325 0  1 0.325 0.025  0.65 0.35 0  0.65 0.35 0.025  0.625 0.35 0  0.625 0.35 0.025  0.675 0.35 0  0.675 0.35 0.025  0.7 0.35 0  0.7 0.35 0.025  0.725 0.35 0  0.725 0.35 0.025  0.75 0.35 0  0.75 0.35 0.025  0.775 0.35 0  0.775 0.35 0.025  0.8 0.35 0  0.8 0.35 0.025  0.825 0.35 0  0.825 0.35 0.025  0.85 0.35 0  0.85 0.35 0.025  0.875 0.35 0  0.875 0.35 0.025  0.9 0.35 0  0.9 0.35 0.025  0.925 0.35 0  0.925 0.35 0.025  0.95 0.35 0  0.95 0.35 0.025  0.975 0.35 0  0.975 0.35 0.025  1 0.35 0  1 0.35 0.025  0.65 0.375 0  0.65 0.375 0.025  0.675 0.375 0  0.675 0.375 0.025  0.7 0.375 0  0.7 0.375 0.025  0.725 0.375 0  0.725 0.375 0.025  0.75 0.375 0  0.75 0.375 0.025  0.775 0.375 0  0.775 0.375 0.025  0.8 0.375 0  0.8 0.375 0.025  0.825 0.375 0  0.825 0.375 0.025  0.85 0.375 0  0.85 0.375 0.025  0.875 0.375 0  0.875 0.375 0.025  0.9 0.375 0  0.9 0.375 0.025  0.925 0.375 0  0.925 0.375 0.025  0.95 0.375 0  0.95 0.375 0.025  0.975 0.375 0  0.975 0.375 0.025  1 0.375 0  1 0.375 0.025  0.675 0.4 0.025  0.7 0.4 0  0.7 0.4 0.025  0.725 0.4 0  0.725 0.4 0.025  0.75 0.4 0.025  0.775 0.4 0.025  0.8 0.4 0  0.8 0.4 0.025  0.825 0.4 0  0.825 0.4 0.025  0.85 0.4 0  0.85 0.4 0.025  0.875 0.4 0  0.875 0.4 0.025  0.9 0.4 0  0.9 0.4 0.025  0.925 0.4 0  0.925 0.4 0.025  0.95 0.4 0  0.95 0.4 0.025  0.975 0.4 0  0.975 0.4 0.025  1 0.4 0  1 0.4 0.025  0.725 0.425 0.025  0.75 0.425 0.025  0.825 0.425 0.025  0.85 0.425 0.025  0.875 0.425 0.025  0.9 0.425 0.025  0.925 0.425 0  0.925 0.425 0.025  0.95 0.425 0  0.95 0.425 0.025  0.975 0.425 0  0.975 0.425 0.025  1 0.425 0  1 0.425 0.025  0.95 0.45 0  0.95 0.45 0.025  0.975 0.45 0  0.975 0.45 0.025  1 0.45 0  1 0.45 0.025  1 0.475 0.025  0.525 0.025 0.05  0.525 0 0.05  0.5 0 0.05  0.5 0.025 0.05  0.55 0.025 0.05  0.55 0 0.05  0.575 0.025 0.
[...]
<PointData  Vectors="f_123"> 
<DataArray  type="Float64"  Name="f_123"  NumberOfComponents="3" format="ascii">-9.9817392165125920e+00 -3.2693913701994490e-06 -3.2693914762627860e-06  -9.9818944451508074e+00 5.2492566903127447e-05 5.2492566908775062e-05  -9.9817990886465484e+00 1.7047952455653476e-04 5.3439846646566366e-05  -9.9866819707552832e+00 1.5950511507723146e-04 1.5950511493295673e-04  -9.9817990886464845e+00 5.3439846638368131e-05 1.7047952440798776e-04  -9.9816438146402522e+00 2.7135376418881183e-06 2.3308521064241802e-06  -9.9816438146402078e+00 2.3308521694397880e-06 2.7135375403217583e-06  -9.9865296058213477e+00 6.2187979271963535e-06 6.2187978487100223e-06  -9.9823555612009258e+00 1.0818828434354822e-04 1.0818828437815650e-04  -9.9822604423347894e+00 3.3834391467210597e-04 1.0412407185036803e-04  -9.9871346261254441e+00 3.1258691093026482e-04 3.1258691082821732e-04  -9.9822604423347769e+00 1.0412407180600847e-04 3.3834391457093278e-04  -9.9831218360549290e+00 1.6371178342022282e-04 1.6371178336181214e-04  -9.9830271860014363e+00 5.0553660773393978e-04 1.5470230135085388e-04  -9.9878867160721683e+00 4.6518089000804300e-04 4.6518088998024769e-04  -9.9830271860014381e+00 1.5470230142578505e-04 5.0553660769099042e-04  -9.9841918420327911e+00 2.1892867912719452e-04 2.1892867904624590e-04  -9.9840979591864194e+00 6.7157380922040603e-04 2.0508626553529598e-04  -9.9889365954236098e+00 6.1692034267779811e-04 6.1692034272846895e-04  -9.9840979591864443e+00 2.0508626564211564e-04 6.7157380921062057e-04  -9.9855632417103557e+00 2.7365983118133810e-04 2.7365983107388938e-04  -9.9854705230585221e+00 8.3582140643527003e-04 2.5515024477197162e-04  -9.9902816069788987e+00 7.6730924663994033e-04 7.6730924667914725e-04  -9.9854705230584866e+00 2.5515024487264863e-04 8.3582140646147173e-04  -9.9872324782551942e+00 3.2766299727165018e-04 3.2766299719255183e-04  -9.9871414559406233e+00 9.9743363410010862e-04 3.0471650267781183e-04  -9.9919177540109398e+00 9.1567012427931508e-04 9.1567012430888929e-04  -9.9871414559406482e+00 3.0471650272391937e-04 9.9743363417772513e-04  -9.9891943562630949e+00 3.8061147484104001e-04 3.8061147480003159e-04  -9.9891057404353027e+00 1.1552804982914266e-03 3.5353854956537262e-04  -9.9938392517721724e+00 1.0610824178566797e-03 1.0610824178176237e-03  -9.9891057404352583e+00 3.5353854960998733e-04 1.1552804982841699e-03  -9.9914414762776236e+00 4.3206836152865139e-04 4.3206836157144132e-04  -9.9913562122924819e+00 1.3078585373189802e-03 4.0128133641306540e-04  -9.9960379298642863e+00 1.2023067860984084e-03 1.2023067861010018e-03  -9.9913562122924517e+00 4.0128133638953095e-04 1.3078585372749806e-03  -9.9939635449749140e+00 4.8145445941480728e-04 4.8145445939671113e-04  -9.9938828738684204e+00 1.4531768529318925e-03 4.4749713874402770e-04  -9.9985024577895754e+00 1.3376884272510779e-03 1.3376884272795811e-03  -9.9938828738684435e+00 4.4749713875579325e-04 1.4531768529557592e-03  -9.9967463243216308e+00 5.2800702841406346e-04 5.2800702837010318e-04  -9.9966719115814886e+00 1.5886058835211574e-03 4.9159549613216199e-04  -1.0001217301364953e+01 1.4650285484642314e-03 1.4650285485137326e-03  -9.9966719115815028e+00 4.9159549618211617e-04 1.5886058835822238e-03  -9.9997708199333690e+00 5.7072484977086912e-04 5.7072484976477904e-04  -9.9997047694013634e+00 1.7106680863670247e-03 5.3280475639092657e-04  -1.0004161454522560e+01 1.5814057300850178e-03 1.5814057301377280e-03  -9.9997047694013776e+00 5.3280475640138565e-04 1.7106680863907175e-03  -1.0003010269410277e+01 6.0829273703255594e-04 6.0829273698836831e-04  -1.0002955717702482e+01 1.8147358177186253e-03 5.7012203947957038e-04  -1.0007306342012511e+01 1.6829154831530266e-03 1.6829154831523618e-03  -1.0002955717702466e+01 5.7012203952378718e-04 1.8147358177320225e-03  -1.0006432814277629e+01 6.3897565496059939e-04 6.3897565499441858e-04  -1.0006392890900308e+01 1.8945697803742655e-03 6.0224832144429642e-04  -1.0010614353896957e+01 1.7642665249202679e-03 1.7642665249456824e-03  -1.0006392890900289e+01 6.0224832141138253e-04 1.8945697803941534e-03  -1.0009982202402933e+01 6.6047539144112701e-04 6.6047539145349570e-04  -1.0009964864620692e+01 1.9415636035619490e-03 6.2750902732607581e-04  -1.0014031629079184e+01 1.8181034191473442e-03 1.8181034191538646e-03  -1.0009964864620720e+01 6.2750902731732207e-04 1.9415636035645929e-03  -1.0013627445614032e+01 6.6951376681824134e-04 6.6951376682577524e-04  -1.0013632767077235e+01 1.9434800791911376e-03 6.4363123808025525e-04  -1.0017495723924673e+01 1.8338370766020325e-03 1.8338370766010788e-03  -1.0013632767077215e+01 6.4363123807431664e-04 1.9434800791952741e-03  -1.0017183422432325e+01 6.6269466847705271e-04 6.6269466847649402e-04  -1.0017245202771869e+01 1.8819023338922294e-03 6.4837452797108196e-04  -1.0020881467410623e+01 1.7949691953113018e-03 1.7949691953376185e-03  -1.0017245202771884e+01 6.4837452797360891e-04 1.8819023339081674e-03  -1.0020830283785157e+01 6.2922962857083907e-04 6.2922962856472428e-04  -1.0020914219653092e+01 1.7262098734409708e-03 6.3394844264971621e-04  -1.0024147329957648e+01 1.6739667799356649e-03 1.6739667799436288e-03  -1.0020914219653113e+01 6.3394844265201558e-04 1.7262098734607107e-03  -1.0023575746348945e+01 5.6700254301693669e-04 5.6700254301693593e-04  -1.0023823556142375e+01 1.4312297667400981e-03 6.0060921422008372e-04  -1.0026756930009491e+01 1.4217535531232800e-03 1.4217535531255057e-03  -1.0023823556142371e+01 6.0060921422057162e-04 1.4312297667412989e-03  -1.0027177774495410e+01 4.4228557719772928e-04 4.4228557719770749e-04  -1.0027574092529051e+01 8.7493443783675899e-04 4.7506710810084346e-04  -1.0029496630913883e+01 9.0117205845300285e-04 9.0117205845249924e-04  -1.0027574092529052e+01 4.7506710810016155e-04 8.7493443783821388e-04  -1.0026998301309273e+01 -1.4109865784001525e-04 -1.4109865783947366e-04  -1.0027540459252048e+01 -5.3634123665654013e-05 -2.1970340532248179e-04  -1.0028527807583609e+01 -2.3419497023635587e-05 -2.3419497024076502e-05  -1.0027540459252043e+01 -2.1970340532246574e-04 -5.3634123666878789e-05  -9.9815639145571406e+00 2.9976964796946343e-04 5.2035918912820868e-05  -9.9901753042830901e+00 3.0414717157948939e-04 1.6444058973875720e-04  -9.9820260275840607e+00 5.9785616876396083e-04 1.0397690716162315e-04  -9.9906196572537187e+00 6.0902352719007023e-04 3.2227374785633441e-04  -9.9827942057916221e+00 8.9437754890446942e-04 1.5596102817695768e-04  -9.9913578509325447e+00 9.1254253398048604e-04 4.7996178734320435e-04  -9.9838672679085860e+00 1.1882746984977336e-03 2.0798212129420531e-04  -9.9923880814998203e+00 1.2137610494416223e-03 6.3732298052609669e-04  -9.9852432382091596e+00 1.4781945802339344e-03 2.6000690581182178e-04  -9.9937074584072132e+00 1.5114510927832820e-03 7.9406409482308757e-04  -9.9869190555490732e+00 1.7623696467822696e-03 3.1196475148434022e-04  -9.9953116643512807e+00 1.8039830392042333e-03 9.4973553142545274e-04  -9.9888901811060276e+00 2.0384745620289032e-03 3.6373641044962478e-04  -9.9971944890674376e+00 2.0891867477535286e-03 1.1036781703425182e-03  -9.9911500759851357e+00 2.3034493366050446e-03 4.1514136224198695e-04  -9.9993472051065329e+00 2.3641799236022317e-03 1.2549576424687012e-03  -9.9936895634102356e+00 2.5532728696428227e-03 4.6592333907377728e-04  -1.0001757761571495e+01 2.6251478009874591e-03 1.4022793000693357e-03  -9.9964958981195302e+00 2.7826623703114972e-03 5.1573362332772818e-04  -1.0004409676220128e+01 2.8670494190810017e-03 1.5438726862770466e-03  -9.9995519997510325e+00 2.9846594909801287e-03 5.6411146062573033e-04  -1.0007280746925073e+01 3.0832104181430990e-03 1.6773253990944985e-03  -1.0002833995185714e+01 3.1500395923866457e-03 6.1046094006874882e-04  -1.0010340679582487e+01 3.2647351132364562e-03 1.7993288198774363e-03  -1.0006313229916444e+01 3.2664313760801997e-03 6.5402365419372642e-04  -1.0013550102548248e+01 3.3996178707038044e-03 1.9052571022295723e-03  -1.0009940946383361e+01 3.3169757993962230e-03 6.9385569503292580e-04  -1.0016851060212959e+01 3.4713484429912999e-03 1.9883997214640292e-03  -1.0013689523901032e+01 3.2781394767255247e-03 7.2858296400368880e-04  -1.0020181686135743e+01 3.4565726317607936e-03 2.0384869995660523e-03  -1.0017401702565051e+01 3.1163451214020429e-03 7.5727535957485455e-04  -1.0023398273192402e+01 3.3211707576436297e-03 2.0381573049916106e-03  -1.0021258977670460e+01 2.7824370583426350e-03 7.7156312465535175e-04  -1.0026499207574856e+01 3.0134106089994661e-03 1.9547163978298715e-03  -1.0024313383410130e+01 2.2064359628403488e-03 7.6857594105447780e-04  -1.0028810340351523e+01 2.4517165700278401e-03 1.7231747109523641e-03  -1.0028675499949925e+01 1.2910631424939473e-03 6.4005034262373014e-04  -1.0031552778360473e+01 1.5087569732550824e-03 1.1485525019888107e-03  -1.0028439904335704e+01 -1.6174742063147320e-05 -2.6185258659671584e-04  -1.0029684815104645e+01 4.3979106365759496e-05 -3.9467750304829660e-05  -9.9816664033525626e+00 8.3705517642063826e-04 1.1342857368662189e-04  -9.9932283777641988e+00 8.5446056059589580e-04 3.5063576248386161e-04  -9.9812027496799764e+00 4.1898293015678480e-04 5.6616303262904583e-05  -9.9927914915922518e+00 4.2725740667090925e-04 1.7896191365601014e-04  -9.9824374102621913e+00 1.2523040015540417e-03 1.7044680739019587e-04  -9.9939541730073778e+00 1.2790681016308996e-03 5.2256191606401159e-04  -9.9835148919195813e+00 1.6629076720557645e-03 2.2775102809721707e-04  -9.9949670574105962e+00 1.6993829917521790e-03 6.9476573662779313e-04  -9.9848973167506578e+00 2.0665929230230854e-03 2.8540104400886406e-04  -9.9962641178936629e+00 2.1132627695915410e-03 8.6717214982557386e-04  -9.9865822320945323e+00 2.4604508417591119e-03 3.4342897232907880e-04  -9.9978410088475247e+00 2.5179375787357473e-03 1.0395645404336301e-03  -9.9885659058763103e+00 2.8407191726243786e-03 4.0183116800301743e-04  -9.9996914875882155e+00 2.9097944395337443e-03 1.2115349927082962e-03  -9.9908428538168366e+00 3.2025158293666227e-03 4.6055928603610781e-04  -1.0001806794294046e+01 3.2841121661382131e-03 1.3824208816201819e-03  -9.9934052737681256e+00 3.5395020847224195e-03 5.1951000983151596e-04  -1.0004174853503242e+01 3.6347245515775221e-03 1.5512195032970130e-03  -9.9962422224127714e+00 3.8434441954500122e-03 5.7851269073708059e-04  -1.0006779185617884e+01 3.9535787172235845e-03 1.7164661248538621e-03  -9.9993390096132426e+00 4.1036272355024642e-03 6.3731300813021712e-04  -1.0009597645630411e+01 4.2301384822820203e-03 1.8760480016492211e-03  -1.0002674978967459e+01 4.3060531275473475e-03 6.9554853989635184e-04  -1.0012600139812498e+01 4.4505558673194386e-03 2.0269009311814096e-03  -1.0006225951900005e+01 4.4323230416807736e-03 7.5270623901267024e-04  -1.0015747712467496e+01 4.5964927640216157e-03 2.1644745155140312e-03  -1.0009949206889566e+01 4.4580787994959797e-03 8.0804350381720902e-04  -1.0018983439715472e+01 4.6434180120241446e-03 2.2817045952364941e-03  -1.0013827025630267e+01 4.3508352313303029e-03 8.6016053021996917e-04  -1.0022247382412880e+01 4.5581363505490507e-03 2.3669650801363866e-03  -1.0017710504989344e+01 4.0674111230222677e-03 9.0752468742965416e-04  -1.0025398973294452e+01 4.2953854117201169e-03 2.3991339919240688e-03  -1.0021816664388036e+01 3.5508959973275271e-03 9.3814812997066669e-04  -1.0028449463735107e+01 3.7933623015578926e-03 2.3362521510264774e-03  -1.0025143475373669e+01 2.7339290495804343e-03 9.4185061800492007e-04  -1.0030702518866041e+01 2.9712939439544253e-03 2.0925334750401324e-03  -1.0030054015961227e+01 1.5468066132378240e-03 7.7956207220943106e-04  -1.0033547808500359e+01 1.7317151572468555e-03 1.4141246301653894e-03  -1.0029718979064038e+01 -4.6454816024821284e-06 -3.3808802034815074e-04  -1.0031245863433453e+01 1.0681474865758391e-05 -4.9634937357006433e-05  -9.9811965721761204e+00 1.0381678328399465e-03 1.2578995831841324e-04  -9.9952114640889356e+00 1.0592919821590602e-03 3.8567588955460124e-04  -9.9807303489992787e+00 5.1902839949796980e-04 6.2725483853531995e-05  -9.9947808152672852e+00 5.2893936799373225e-04 1.9660375188909734e-04  -9.9819722127593309e+00 1.5529369654890327e-03 1.8922669266012752e-04  -9.9959270164112244e+00 1.5854975890142108e-03 5.7541597365379650e-04  -9.9830568229906760e+00 2.0606140282008936e-03 2.5320133597741054e-04  -9.9969257907531368e+00 2.1049525953566865e-03 7.6606136815260742e-04  -9.9844495015747992e+00 2.5578723062710989e-03 3.1786354280351182e-04  -9.9982050787557704e+00 2.6144502228226635e-03 9.5775378830096074e-04  -9.9861486563491635e+00 3.0405371632762127e-03 3.8334075940247507e-04  -9.9997608189311382e+00 3.1099373331173619e-03 1.1504984633376046e-03  -9.9881516905646741e+00 3.5033025935416189e-03 4.4973117464114246e-04  -1.0001587151964175e+01 3.5862297080232141e-03 1.3441127358606157e-03  -9.9904545931975548e+00 3.9393906814078261e-03 5.1709520197463458e-04  -1.0003675830105543e+01 4.0366682657713105e-03 1.5381574916394592e-03  -9.9930514632577641e+00 4.3401320675877011e-03 5.8544427874545647e-04  -1.0006015463272279e+01 4.4526926735422795e-03 1.7318401248761464e-03  -9.9959338091365897e+00 4.6944385477264540e-03 6.5472467272282219e-04  -1.0008590495290107e+01 4.8233004031299782e-03 1.9238688348366059e-03  -9.9990901299668611e+00 4.9881305135419341e-03 7.2479114682212989e-04  -1.0011380048903693e+01 5.1343481984579397e-03 2.1122201958753794e-03  -1.0002503897604427e+01 5.2030752820702193e-03 7.9535965508358778e-04  -1.0014355770520867e+01 5.3676405902080924e-03 2.2937461982554092e-03  -1.0006156484294655e+01 5.3160928608040892e-03 8.6591400119934430e-04  -1.0017481224182783e+01 5.4997411038235017e-03 2.4634668546080194e-03  -1.0010011935597834e+01 5.2976284330197619e-03 9.3552001982177141e-04  -1.0020702780944266e+01 5.5004583677678073e-03 2.6132077812353058e-03  -1.0014063036693134e+01 5.1102941674191753e-03 1.0021350976749091e-03  -1.0023966088628296e+01 5.3310397427625868e-03 2.7289000487917105e-03  -1.0018166976816802e+01 4.7078910910891437e-03 1.0627465170979019e-03  -1.0027134407469733e+01 4.9424273752134646e-03 2.7843427957203546e-03  -1.0022568228261663e+01 4.0358908433499891e-03 1.1010350825627927e-03  -1.0030235847631523e+01 4.2746110046876125e-03 2.7272786151209109e-03  -1.0026208972557709e+01 3.0396516499538819e-03 1.0996168232304104e-03  -1.0032542558096138e+01 3.2608184562145912e-03 2.4524345873553188e-03  -1.0031605944561717e+01 1.6786533608043291e-03 8.9780034329239638e-04  -1.0035562348214997e+01 1.8393986733030499e-03 1.6588846880486114e-03  -1.0031247704093699e+01 -3.0206482068697428e-06 -3.9955368027915882e-04  -1.0033019695055208e+01 7.7606827999167591e-06 -5.1885830071816440e-05  -9.9806364504248073e+00 1.1973591008453926e-03 1.3952461011138871e-04  -9.9967193686088542e+00 1.2206481564757611e-03 4.2487300375936292e-04  -9.9801664492297313e+00 5.9774401054229554e-04 6.9565422691163405e-05  -9.9962934352117507e+00 6.0869659751458440e-04 2.1633173819505017e-04  -9.9814188195991829e+00 1.7908817612933808e-03 2.1001432447507819e-04  -9.9974273144093608e+00 1.8267092484609137e-03 6.3447880496130329e-04  -9.9825136592809436e+00 2.3746186093636700e-03 2.8127951182331052e-04  -9.9984158804835186e+00 2.4232892587674627e-03 8.4558378277165436e-04  -9.9839208698253135e+00 2.9441367884258858e-03 3.5355040768758519e-04  -9.9996827826762420e+00 3.0060552363884089e-03 1.0585240996278766e-03  -9.9856399466912045e+00 3.4939736391353640e-03 4.2703605729014235e-04  -1.0001224540562067e+01 3.5696390706368912e-03 1.2734930559187671e-03  -9.9876697155455805e+00 4.0173048499042045e-03 5.0191616156043531e-04  -1.0003036064465775e+01 4.1073013625257445e-03 1.4904829067524184e-03  -9.9900079890466760e+00 4.5055565137372558e-03 5.7832995245174490e-04  -1.0005110109322253e+01 4.6105362024122668e-03 1.7092040509058852e-03  -9.9926511802168942e+00 4.9479441426874037e-03 6.5635968013653186e-04  -1.0007436582276295e+01 5.0685978573724753e-03 1.9289665235562459e-03  -9.9955937156133814e+00 5.3309201906212925e-03 7.3600423931888931e-04  -1.0010001601833327e+01 5.4679273976792750e-03 2.1484970959172204e-03  -9.9988277671072492e+00 5.6375134363794962e-03 8.1713377904694018e-04  -1.0012786455073213e+01 5.7914565778564089e-03 2.3656426100489019e-03  -1.0002341374604029e+01 5.8465552481405921e-03 8.9940713754511372e-04  -1.0015765571189077e+01 6.0177731307308755e-03 2.5768659193959580e-03  -1.0006121631143973e+01 5.9318203810833185e-03 9.8211295294833032e-04  -1.0018906103782578e+01 6.1201573636960067e-03 2.7763454439924465e-03  -1.0010139098738552e+01 5.8612027971663020e-03 1.0638644471327491e-03  -1.0022158766034394e+01 6.0655741685691090e-03 2.9542750845131670e-03  -1.0014395103606207e+01 5.5962167595436669e-03 1.1416620715218272e-03  -1.0025474856056567e+01 5.8138682981316069e-03 3.0935773285991662e-03  -1.0018750264529322e+01 5.0926486607311555e-03 1.2107314346421262e-03  -1.0028721104337274e+01 5.3178261047160513e-03 3.1626191463855445e-03  -1.0023464694841705e+01 4.3035268301933058e-03 1.2506580961578722e-03  -1.0031935548976399e+01 4.5253912120310526e-03 3.0994081847433722e-03  -1.0027427298019475e+01 3.1893909055795778e-03 1.2381236566778807e-03  -1.0034357841154186e+01 3.3871816709517347e-03 2.7823831156991458e-03  -1.0033248220715615e+01 1.7332669333780500e-03 9.9789013022146726e-04  -1.0037571166933988e+01 1.8714929238981075e-03 1.8742545124534277e-03  -1.0032909178298269e+01 4.8744715561643769e-07 -4.5121561801299124e-04  -1.0034878125925005e+01 5.6957526258944661e-06 -5.5567301743082301e-05  -9.9800072862462237e+00 1.3133185785759252e-03 1.5388277642036993e-04  -9.9978542599543960e+00 1.3377084561262363e-03 4.6600276862196265e-04  -9.9795322127413506e+00 6.5459792038198518e-04 7.6738607496472909e-05  -9.9807986077166735e+00 1.9641852085852231e-03 2.3169972783160237e-04  -9.9985575162516334e+00 2.0016305585530557e-03 6.9640515745030863e-04  -9.9819069300228165e+00 2.6025371262574106e-03 3.1050347829775037e-04  -9.9995401447467600e+00 2.6532900176778236e-03 9.2883308178710433e-04  -9.9833330952973629e+00 3.2228703950064573e-03 3.9059172880481454e-04  -1.0000800477294217e+01 3.2872577416625613e-03 1.1637839141488619e-03  -9.9850778659336807e+00 3.8185161738133952e-03 4.7223774164142690e-04  -1.0002335867788682e+01 3.8969281284910516e-03 1.4015950803509525e-03  -9.9871417052847296e+00 4.3812825046740337e-03 5.5567930083204580e-04  -1.0004142314576432e+01 4.4741542127749228e-03 1.6423748972023494e-03  -9.9895244928536346e+00 4.9010498028629152e-03 6.4110264192514287e-04  -1.0006213960776583e+01 5.0088330058002586e-03 1.8859042615621846e-03  -9.9922252093513233e+00 5.3653116553303518e-03 7.2861759414493798e-04  -1.0008542460617949e+01 5.4884305754256202e-03 2.1314902407017049e-03  -9.9952414294678551e+00 5.7586571278789439e-03 8.1821723382511649e-04  -1.0011116107834988e+01 5.8974397743941000e-03 2.3777386443220084e-03  -9.9985691386916589e+00 6.0622022570138243e-03 9.0970913872515341e-04  -1.0013918869970622e+01 6.2167730861312160e-03 2.6221861516312521e-03  -1.0002200883736988e+01 6.2530044884538567e-03 1.0025938930095853e-03  -1.0016928413815725e+01 6.4231157745884837e-03 2.8606821764887453e-03  -1.0006128998995097e+01 6.3035459535337049e-03 1.0958408555815540e-03  -1.0020115725386082e+01 6.4883127229378029e-03 3.0863052591898754e-03  -1.0010329408399045e+01 6.1814823557050378e-03 1.1874761550611677e-03  -1.0023435633404464e+01 6.3789618291755362e-03 3.2873686039539460e-03  -1.0014809391583810e+01 5.8500285916175728e-03 1.2734458546865817e-03  -1.0026843873132101e+01 6.0565648790278301e-03 3.4436640279387381e-03  -1.0019429619963544e+01 5.2697949498678141e-03 1.3472563566783021e-03  -1.0030208264562003e+01 5.4789467541773657e-03 3.5184108773910028e-03  -1.0024456897109991e+01 4.4030545458023720e-03 1.3849679799496628e-03  -1.0033570747623180e+01 4.6040514861021738e-03 3.4411544493305104e-03  -1.0028731104718899e+01 3.2241469925280799e-03 1.3586496893476963e-03  -1.0036137680557214e+01 3.3984247395829207e-03 3.0773155985650493e-03  -1.0034917683023959e+01 1.7325387983483610e-03 1.08279755758