<?xml version="1.0"?>
<VTKFile type="UnstructuredGrid"  version="0.1"  >
<UnstructuredGrid>
<Piece  NumberOfPoints="7451" NumberOfCells="37868">
<Points>
<DataArray  type="Float64"  NumberOfComponents="3"  format="ascii">0 0.45 0.35  0 0.45 0.375  0 0.475 0.375  0.025 0.475 0.375  0.025 0.475 0.4  0 0.45 0.4  0 0.475 0.4  0.025 0.5 0.4  0 0.5 0.4  0 0.5 0.375  0.05 0.475 0.375  0.05 0.475 0.4  0.05 0.5 0.4  0.075 0.5 0.4  0.025 0.525 0.4  0 0.525 0.4  0 0.525 0.375  0.025 0.55 0.4  0 0.55 0.4  0 0.55 0.375  0.025 0.575 0.4  0 0.575 0.4  0 0.575 0.375  0.025 0.6 0.4  0 0.6 0.4  0 0.6 0.375  0.025 0.625 0.4  0 0.625 0.4  0 0.425 0.4  0 0.425 0.425  0 0.45 0.425  0.025 0.45 0.425  0.025 0.475 0.425  0 0.475 0.425  0.025 0.5 0.425  0 0.5 0.425  0.05 0.5 0.425  0.05 0.475 0.425  0.075 0.5 0.425  0.025 0.525 0.425  0 0.525 0.425  0.05 0.525 0.4  0.05 0.525 0.425  0.075 0.525 0.4  0.075 0.525 0.425  0.1 0.5 0.4  0.1 0.525 0.4  0.1 0.525 0.425  0.1 0.5 0.425  0.125 0.5 0.425  0.125 0.525 0.425  0.025 0.55 0.425  0 0.55 0.425  0.05 0.55 0.4  0.05 0.55 0.425  0.075 0.55 0.4  0.075 0.55 0.425  0.1 0.55 0.4  0.1 0.55 0.425  0.125 0.55 0.425  0.025 0.575 0.425  0 0.575 0.425  0.05 0.575 0.4  0.05 0.575 0.425  0.075 0.575 0.4  0.075 0.575 0.425  0.1 0.575 0.425  0.125 0.575 0.425  0.025 0.6 0.425  0 0.6 0.425  0.05 0.6 0.4  0.05 0.6 0.425  0.075 0.6 0.425  0.1 0.6 0.425  0.025 0.625 0.425  0 0.625 0.425  0.05 0.625 0.425  0.075 0.625 0.425  0.025 0.65 0.425  0 0.65 0.425  0 0.65 0.4  0.05 0.65 0.425  0.025 0.675 0.425  0 0.675 0.425  0 0.4 0.425  0 0.4 0.45  0 0.425 0.45  0.025 0.425 0.45  0.025 0.45 0.45  0 0.45 0.45  0.025 0.475 0.45  0 0.475 0.45  0.05 0.45 0.45  0.05 0.475 0.45  0.025 0.5 0.45  0 0.5 0.45  0.05 0.5 0.45  0.075 0.475 0.45  0.075 0.5 0.45  0.025 0.525 0.45  0 0.525 0.45  0.05 0.525 0.45  0.075 0.525 0.45  0.1 0.525 0.45  0.1 0.5 0.45  0.125 0.525 0.45  0.025 0.55 0.45  0 0.55 0.45  0.05 0.55 0.45  0.075 0.55 0.45  0.1 0.55 0.45  0.125 0.55 0.45  0.15 0.55 0.425  0.15 0.55 0.45  0.025 0.575 0.45  0 0.575 0.45  0.05 0.575 0.45  0.075 0.575 0.45  0.1 0.575 0.45  0.125 0.575 0.45  0.15 0.575 0.425  0.15 0.575 0.45  0.175 0.575 0.45  0.025 0.6 0.45  0 0.6 0.45  0.05 0.6 0.45  0.075 0.6 0.45  0.1 0.6 0.45  0.125 0.6 0.45  0.15 0.6 0.45  0.175 0.6 0.45  0.025 0.625 0.45  0 0.625 0.45  0.05 0.625 0.45  0.075 0.625 0.45  0.1 0.625 0.45  0.125 0.625 0.45  0.025 0.65 0.45  0 0.65 0.45  0.05 0.65 0.45  0.075 0.65 0.45  0.1 0.65 0.45  0.025 0.675 0.45  0 0.675 0.45  0.05 0.675 0.45  0.075 0.675 0.45  0.025 0.7 0.45  0 0.7 0.45  0 0.7 0.425  0.05 0.7 0.45  0.025 0.725 0.45  0 0.725 0.45  0.025 0.425 0.475  0 0.4 0.475  0 0.425 0.475  0.025 0.45 0.475  0 0.45 0.475  0.05 0.45 0.475  0.025 0.475 0.475  0 0.475 0.475  0.05 0.475 0.475  0.075 0.475 0.475  0.025 0.5 0.475  0 0.5 0.475  0.05 0.5 0.475  0.075 0.5 0.475  0.1 0.5 0.475  0.025 0.525 0.475  0 0.525 0.475  0.05 0.525 0.475  0.075 0.525 0.475  0.1 0.525 0.475  0.125 0.525 0.475  0.025 0.55 0.475  0 0.55 0.475  0.05 0.55 0.475  0.075 0.55 0.475  0.1 0.55 0.475  0.125 0.55 0.475  0.15 0.55 0.475  0.025 0.575 0.475  0 0.575 0.475  0.05 0.575 0.475  0.075 0.575 0.475  0.1 0.575 0.475  0.125 0.575 0.475  0.15 0.575 0.475  0.175 0.575 0.475  0.025 0.6 0.475  0 0.6 0.475  0.05 0.6 0.475  0.075 0.6 0.475  0.1 0.6 0.475  0.125 0.6 0.475  0.15 0.6 0.475  0.175 0.6 0.475  0.2 0.6 0.475  0.025 0.625 0.475  0 0.625 0.475  0.05 0.625 0.475  0.075 0.625 0.475  0.1 0.625 0.475  0.125 0.625 0.475  0.15 0.625 0.475  0.175 0.625 0.475  0.2 0.625 0.475  0.025 0.65 0.475  0 0.65 0.475  0.05 0.65 0.475  0.075 0.65 0.475  0.1 0.65 0.475  0.125 0.65 0.45  0.125 0.65 0.475  0.15 0.65 0.475  0.025 0.675 0.475  0 0.675 0.475  0.05 0.675 0.475  0.075 0.675 0.475  0.1 0.675 0.475  0.125 0.675 0.475  0.15 0.675 0.475  0.025 0.7 0.475  0 0.7 0.475  0.05 0.7 0.475  0.075 0.7 0.475  0.1 0.7 0.475  0.025 0.725 0.475  0 0.725 0.475  0.05 0.725 0.475  0.075 0.725 0.475  0.025 0.75 0.45  0.025 0.75 0.475  0 0.75 0.45  0 0.75 0.475  0.05 0.75 0.475  0.025 0.775 0.475  0 0.775 0.475  0 0.775 0.45  0.05 0.775 0.475  0.025 0.8 0.475  0 0.8 0.475  0 0.375 0.475  0 0.375 0.5  0 0.4 0.5  0.025 0.4 0.5  0.025 0.425 0.5  0 0.425 0.5  0.025 0.45 0.5  0 0.45 0.5  0.05 0.425 0.5  0.05 0.45 0.5  0.025 0.475 0.5  0 0.475 0.5  0.05 0.475 0.5  0.075 0.475 0.5  0.025 0.5 0.5  0 0.5 0.5  0.05 0.5 0.5  0.075 0.5 0.5  0.1 0.5 0.5  0.025 0.525 0.5  0 0.525 0.5  0.05 0.525 0.5  0.075 0.525 0.5  0.1 0.525 0.5  0.125 0.525 0.5  0.025 0.55 0.5  0 0.55 0.5  0.05 0.55 0.5  0.075 0.55 0.5  0.1 0.55 0.5  0.125 0.55 0.5  0.15 0.55 0.5  0.025 0.575 0.5  0 0.575 0.5  0.05 0.575 0.5  0.075 0.575 0.5  0.1 0.575 0.5  0.125 0.575 0.5  0.15 0.575 0.5  0.175 0.575 0.5  0.025 0.6 0.5  0 0.6 0.5  0.05 0.6 0.5  0.075 0.6 0.5  0.1 0.6 0.5  0.125 0.6 0.5  0.15 0.6 0.5  0.175 0.6 0.5  0.2 0.6 0.5  0.025 0.625 0.5  0 0.625 0.5  0.05 0.625 0.5  0.075 0.625 0.5  0.1 0.625 0.5  0.125 0.625 0.5  0.15 0.625 0.5  0.175 0.625 0.5  0.2 0.625 0.5  0.225 0.625 0.5  0.025 0.65 0.5  0 0.65 0.5  0.05 0.65 0.5  0.075 0.65 0.5  0.1 0.65 0.5  0.125 0.65 0.5  0.15 0.65 0.5  0.175 0.65 0.475  0.175 0.65 0.5  0.2 0.65 0.475  0.2 0.65 0.5  0.225 0.65 0.5  0.025 0.675 0.5  0 0.675 0.5  0.05 0.675 0.5  0.075 0.675 0.5  0.1 0.675 0.5  0.125 0.675 0.5  0.15 0.675 0.5  0.175 0.675 0.475  0.175 0.675 0.5  0.2 0.675 0.5  0.225 0.675 0.5  0.025 0.7 0.5  0 0.7 0.5  0.05 0.7 0.5  0.075 0.7 0.5  0.1 0.7 0.5  0.125 0.7 0.475  0.125 0.7 0.5  0.15 0.7 0.475  0.15 0.7 0.5  0.175 0.7 0.5  0.2 0.7 0.5  0.025 0.725 0.5  0 0.725 0.5  0.05 0.725 0.5  0.075 0.725 0.5  0.1 0.725 0.475  0.1 0.725 0.5  0.125 0.725 0.5  0.15 0.725 0.5  0.175 0.725 0.5  0.025 0.75 0.5  0 0.75 0.5  0.05 0.75 0.5  0.075 0.75 0.475  0.075 0.75 0.5  0.1 0.75 0.475  0.1 0.75 0.5  0.125 0.75 0.5  0.025 0.775 0.5  0 0.775 0.5  0.05 0.775 0.5  0.075 0.775 0.475  0.075 0.775 0.5  0.1 0.775 0.475  0.1 0.775 0.5  0.125 0.775 0.5  0.025 0.8 0.5  0 0.8 0.5  0.05 0.8 0.5  0.075 0.8 0.5  0.1 0.8 0.5  0.125 0.8 0.5  0.025 0.825 0.475  0.025 0.825 0.5  0 0.825 0.475  0 0.825 0.5  0.05 0.825 0.5  0.025 0.85 0.475  0.025 0.85 0.5  0 0.85 0.475  0 0.85 0.5  0.05 0.85 0.5  0.025 0.875 0.5  0 0.875 0.5  0 0.875 0.475  0.05 0.875 0.5  0.025 0.9 0.5  0 0.9 0.5  0 0.9 0.475  0.025 0.925 0.5  0 0.925 0.5  0.025 0.4 0.525  0 0.375 0.525  0 0.4 0.525  0.025 0.425 0.525  0 0.425 0.525  0.05 0.425 0.525  0.025 0.45 0.525  0 0.45 0.525  0.05 0.45 0.525  0.075 0.45 0.525  0.025 0.475 0.525  0 0.475 0.525  0.05 0.475 0.525  0.075 0.475 0.525  0.025 0.5 0.525  0 0.5 0.525  0.05 0.5 0.525  0.075 0.5 0.525  0.1 0.475 0.525  0.1 0.5 0.525  0.025 0.525 0.525  0 0.525 0.525  0.05 0.525 0.525  0.075 0.525 0.525  0.1 0.525 0.525  0.125 0.5 0.525  0.125 0.525 0.525  0.025 0.55 0.525  0 0.55 0.525  0.05 0.55 0.525  0.075 0.55 0.525  0.1 0.55 0.525  0.125 0.55 0.525  0.15 0.525 0.525  0.15 0.55 0.525  0.025 0.575 0.525  0 0.575 0.525  0.05 0.575 0.525  0.075 0.575 0.525  0.1 0.575 0.525  0.125 0.575 0.525  0.15 0.575 0.525  0.175 0.575 0.525  0.025 0.6 0.525  0 0.6 0.525  0.05 0.6 0.525  0.075 0.6 0.525  0.1 0.6 0.525  0.125 0.6 0.525  0.15 0.6 0.525  0.175 0.6 0.525  0.2 0.6 0.525  0.025 0.625 0.525  0 0.625 0.525  0.05 0.625 0.525  0.075 0.625 0.525  0.1 0.625 0.525  0.125 0.625 0.525  0.15 0.625 0.525  0.175 0.625 0.525  0.2 0.625 0.525  0.225 0.625 0.525  0.025 0.65 0.525  0 0.65 0.525  0.05 0.65 0.525  0.075 0.65 0.525  0.1 0.65 0.525  0.125 0.65 0.525  0.15 0.65 0.525  0.175 0.65 0.525  0.2 0.65 0.525  0.225 0.65 0.525  0.25 0.625 0.5  0.25 0.65 0.5  0.25 0.65 0.525  0.25 0.625 0.525  0.275 0.625 0.5  0.275 0.65 0.5  0.275 0.65 0.525  0.3 0.625 0.5  0.3 0.65 0.5  0.3 0.65 0.525  0.325 0.65 0.525  0.025 0.675 0.525  0 0.675 0.525  0.05 0.675 0.525  0.075 0.675 0.525  0.1 0.675 0.525  0.125 0.675 0.525  0.15 0.675 0.525  0.175 0.675 0.525  0.2 0.675 0.525  0.225 0.675 0.525  0.25 0.675 0.5  0.25 0.675 0.525  0.275 0.675 0.5  0.275 0.675 0.525  0.3 0.675 0.525  0.325 0.675 0.525  0.025 0.7 0.525  0 0.7 0.525  0.05 0.7 0.525  0.075 0.7 0.525  0.1 0.7 0.525  0.125 0.7 0.525  0.15 0.7 0.525  0.175 0.7 0.525  0.2 0.7 0.525  0.225 0.7 0.525  0.25 0.7 0.525  0.275 0.7 0.525  0.3 0.7 0.525  0.025 0.725 0.525  0 0.725 0.525  0.05 0.725 0.525  0.075 0.725 0.525  0.1 0.725 0.525  0.125 0.725 0.525  0.15 0.725 0.525  0.175 0.725 0.525  0.2 0.725 0.5  0.2 0.725 0.525  0.225 0.725 0.525  0.025 0.75 0.525  0 0.75 0.525  0.05 0.75 0.525  0.075 0.75 0.525  0.1 0.75 0.525  0.125 0.75 0.525  0.15 0.75 0.5  0.15 0.75 0.525  0.175 0.75 0.5  0.175 0.75 0.525  0.2 0.75 0.525  0.225 0.75 0.525  0.025 0.775 0.525  0 0.775 0.525  0.05 0.775 0.525  0.075 0.775 0.525  0.1 0.775 0.525  0.125 0.775 0.525  0.15 0.775 0.5  0.15 0.775 0.525  0.175 0.775 0.525  0.2 0.775 0.525  0.025 0.8 0.525  0 0.8 0.525  0.05 0.8 0.525  0.075 0.8 0.525  0.1 0.8 0.525  0.125 0.8 0.525  0.15 0.8 0.5  0.15 0.8 0.525  0.175 0.8 0.525  0.025 0.825 0.525  0 0.825 0.525  0.05 0.825 0.525  0.075 0.825 0.5  0.075 0.825 0.525  0.1 0.825 0.5  0.1 0.825 0.525  0.125 0.825 0.525  0.15 0.825 0.525  0.175 0.825 0.525  0.025 0.85 0.525  0 0.85 0.525  0.05 0.85 0.525  0.075 0.85 0.5  0.075 0.85 0.525  0.1 0.85 0.5  0.1 0.85 0.525  0.125 0.85 0.525  0.025 0.875 0.525  0 0.875 0.525  0.05 0.875 0.525  0.075 0.875 0.5  0.075 0.875 0.525  0.1 0.875 0.525  0.125 0.875 0.525  0.025 0.9 0.525  0 0.9 0.525  0.05 0.9 0.5  0.05 0.9 0.525  0.075 0.9 0.525  0.1 0.9 0.525  0.025 0.925 0.525  0 0.925 0.525  0.05 0.925 0.525  0.075 0.925 0.525  0.025 0.95 0.525  0 0.95 0.525  0 0.95 0.5  0.05 0.95 0.525  0.025 0.975 0.525  0 0.975 0.525  0 0.975 0.5  0.025 1 0.525  0 1 0.525  0 1 0.5  0 0.35 0.525  0 0.35 0.55  0 0.375 0.55  0.025 0.375 0.55  0.025 0.4 0.55  0 0.4 0.55  0.025 0.425 0.55  0 0.425 0.55  0.05 0.4 0.55  0.05 0.425 0.55  0.025 0.45 0.55  0 0.45 0.55  0.05 0.45 0.55  0.075 0.425 0.55  0.075 0.45 0.55  0.025 0.475 0.55  0 0.475 0.55  0.05 0.475 0.55  0.075 0.475 0.55  0.1 0.45 0.55  0.1 0.475 0.55  0.025 0.5 0.55 
[...]
<PointData  Vectors="f_123"> 
<DataArray  type="Float64"  Name="f_123"  NumberOfComponents="3" format="ascii">-1.0121296261996614e+01 7.5406509223941999e-08 1.2985100142241624e-06  -1.0123704036101202e+01 1.5039210073843624e-07 1.1086202081656395e-06  -1.0124232199020300e+01 -1.1432567885846316e-07 1.1777071816242769e-06  -1.0133820231014385e+01 -4.2394056413119199e-04 -2.2478005949259756e-03  -1.0136082762502605e+01 -4.3423352890092887e-04 -1.7937591969612546e-03  -1.0125642252111827e+01 2.2377474896620743e-07 8.8316113542349838e-07  -1.0126182033861420e+01 -4.6820340852509029e-08 9.5230216106570972e-07  -1.0136361536680798e+01 -7.3558252345925019e-06 -1.7986517921311481e-03  -1.0126277966913673e+01 -3.2094818708441150e-07 1.0169538785593587e-06  -1.0124325899980214e+01 -3.8242391558560938e-07 1.2415089478335103e-06  -1.0132723499680136e+01 -7.8074780005994520e-04 -4.1170903048312430e-03  -1.0134908467249238e+01 -7.9959838831721443e-04 -3.2905428287543503e-03  -1.0135136604447066e+01 -1.5002358070507923e-05 -3.2994987616815816e-03  -1.0137733260220765e+01 -2.2448989364070022e-05 -4.5115379265419633e-03  -1.0136173401155171e+01 4.1945948314906742e-04 -1.7948793335092726e-03  -1.0125930348143298e+01 -5.9314058143567470e-07 1.0771332467317430e-06  -1.0123985437395229e+01 -6.4872964006285797e-07 1.3001406109240570e-06  -1.0135517647988818e+01 8.4746952211474900e-04 -1.7824504496559382e-03  -1.0125138005731003e+01 -8.5767539718958712e-07 1.1327483322132685e-06  -1.0123209628268169e+01 -9.0778723017656207e-07 1.3535790234248286e-06  -1.0134391713888222e+01 1.2778275145547222e-03 -1.7613899238034913e-03  -1.0123898376536838e+01 -1.1081063438603162e-06 1.1835674484155769e-06  -1.0121995881902286e+01 -1.1533988688583086e-06 1.4016334928005539e-06  -1.0132791304433280e+01 1.7114733220200376e-03 -1.7317450787676274e-03  -1.0122207686717093e+01 -1.3367158390373283e-06 1.2291889279888766e-06  -1.0120340372113478e+01 -1.3780827741617240e-06 1.4439143077346793e-06  -1.0130710613973298e+01 2.1490069144624534e-03 -1.6935966901749974e-03  -1.0120061250133762e+01 -1.5338797771897892e-06 1.2690125637599355e-06  -1.0124656875842252e+01 4.8516549126631933e-07 8.0943617488698248e-07  -1.0126114175884732e+01 5.6053737282802882e-07 5.6053728084520759e-07  -1.0127115671698190e+01 2.9531062730557382e-07 6.3248243139755151e-07  -1.0137083815619130e+01 -8.7816608807487746e-04 -1.3332277297991868e-03  -1.0137844904724403e+01 -4.4238069838927477e-04 -1.3435505947433659e-03  -1.0127664406495692e+01 2.0427176518113045e-08 7.0100432789570141e-07  -1.0138129335279748e+01 -7.9040205663520924e-06 -1.3473506558919649e-03  -1.0127762110831847e+01 -2.5817599600736393e-07 7.6609220881628667e-07  -1.0136831292987575e+01 -1.5990958531041477e-05 -2.4746686176469919e-03  -1.0136598904415612e+01 -8.1452346804862540e-04 -2.4677158030320520e-03  -1.0139463588059954e+01 -2.3838713411117837e-05 -3.3880949220882113e-03  -1.0137938288403589e+01 4.2650906990880638e-04 -1.3446223039644118e-03  -1.0127409079861199e+01 -5.3480079523280041e-07 8.2768731946709810e-07  -1.0134902490432518e+01 7.6947079725256785e-04 -3.2925673747215257e-03  -1.0136593183666996e+01 7.8241663853346566e-04 -2.4696432347348870e-03  -1.0137510249252195e+01 1.0523600629048896e-03 -4.5021033311102663e-03  -1.0139236806329929e+01 1.0700232301404304e-03 -3.3812554016883390e-03  -1.0140023612874451e+01 -2.9739915772435437e-05 -5.4494407010666083e-03  -1.0139794225715677e+01 1.2711397182635653e-03 -5.4380859212062056e-03  -1.0141535844766471e+01 1.2924431868775311e-03 -4.0896790834029579e-03  -1.0141769270031485e+01 -3.1457363303720414e-05 -4.0979126555715029e-03  -1.0144692837140779e+01 -3.8697443492740083e-05 -4.6174418765961870e-03  -1.0144456262842988e+01 1.4539437549379232e-03 -4.6082111083365386e-03  -1.0137271061521442e+01 8.6210130775822059e-04 -1.3353731560154574e-03  -1.0126604152826010e+01 -8.0352501088717892e-07 8.8564944212673374e-07  -1.0134205147812480e+01 1.5554067712555658e-03 -3.2697682716326046e-03  -1.0135883604019892e+01 1.5822512602279707e-03 -2.4526564081724868e-03  -1.0136819212338430e+01 2.1281318694756899e-03 -4.4709855520412619e-03  -1.0138533532954781e+01 2.1647887165254756e-03 -3.3580586136026666e-03  -1.0139091895150646e+01 2.5719002131685928e-03 -5.4005480268125398e-03  -1.0140820868813393e+01 2.6161404859236775e-03 -4.0616788081087405e-03  -1.0143730215102275e+01 2.9448905568786243e-03 -4.5767222695798360e-03  -1.0136125108226393e+01 1.3000078709649318e-03 -1.3196255366573798e-03  -1.0125344793225423e+01 -1.0577254253692738e-06 9.3972606033326931e-07  -1.0133041687089648e+01 2.3441647848605664e-03 -3.2311591722810175e-03  -1.0134699680223100e+01 2.3848315081692432e-03 -2.4237581395563355e-03  -1.0135656852515268e+01 3.2056452390065247e-03 -4.4182807094001308e-03  -1.0137350481095243e+01 3.2611702788985621e-03 -3.3185855373351549e-03  -1.0139620398730850e+01 3.9391491695925053e-03 -4.0140250977130825e-03  -1.0142509934647510e+01 4.4320745757492671e-03 -4.5231202627338974e-03  -1.0134496168157717e+01 1.7411430379893271e-03 -1.2974212465664643e-03  -1.0123627275846358e+01 -1.2895268882704786e-06 9.8952385328756751e-07  -1.0131407425085188e+01 3.1366388511055283e-03 -3.1768478919494037e-03  -1.0133036761330306e+01 3.1909966446881026e-03 -2.3830406225071638e-03  -1.0135682233640189e+01 4.3591284788402820e-03 -3.2629836658489351e-03  -1.0137927905774479e+01 5.2599706280778450e-03 -3.9469223424595792e-03  -1.0132378496819127e+01 2.1860696089143488e-03 -1.2688297145304977e-03  -1.0121446995347828e+01 -1.4891638911059823e-06 1.0344788891342935e-06  -1.0130888633871786e+01 4.0008246730373681e-03 -2.3306535078382391e-03  -1.0133521400621282e+01 5.4574331702084682e-03 -3.1914881636527542e-03  -1.0129765213355066e+01 2.6348399134354106e-03 -1.2339596900068760e-03  -1.0118798921438783e+01 -1.6439896814367437e-06 1.0738304537632951e-06  -1.0117453909397788e+01 -1.6870748400271911e-06 1.3022113458303273e-06  -1.0128247841546758e+01 4.8132913309230103e-03 -2.2668257610027175e-03  -1.0126648794570947e+01 3.0867930615998034e-03 -1.1929746777669204e-03  -1.0115678239440713e+01 -1.7376785906078448e-06 1.1065966341170271e-06  -1.0124656875842081e+01 8.0943598864667083e-07 4.8516538677782118e-07  -1.0125642252111840e+01 8.8316108182181543e-07 2.2377479758471776e-07  -1.0127115671698609e+01 6.3248241675776704e-07 2.9531061457460621e-07  -1.0137083815619059e+01 -1.3332277299000701e-03 -8.7816608812989053e-04  -1.0138341202370595e+01 -8.8957892453624967e-04 -8.8957892490772053e-04  -1.0128128370597556e+01 3.6484541380745573e-07 3.6484531593082927e-07  -1.0139112736491450e+01 -4.4835456556859888e-04 -8.9664123946798710e-04  -1.0128683365786932e+01 8.7156843131616231e-08 4.3227431432964206e-07  -1.0137088125192026e+01 -1.6356549792435025e-03 -1.6356549791873996e-03  -1.0137800979413917e+01 -8.2546509074689779e-04 -1.6485942711132301e-03  -1.0139401419214044e+01 -8.4273504434618192e-06 -8.9933722736190778e-04  -1.0128782375524811e+01 -1.9444979182424838e-07 4.9750593778152929e-07  -1.0138036474297694e+01 -1.6929945785124219e-05 -1.6535197007200519e-03  -1.0140445338769545e+01 -1.1328781808060656e-03 -2.2595513002814710e-03  -1.0140697444163795e+01 -2.5155912771106364e-05 -2.2663215817062625e-03  -1.0139208426692180e+01 4.3143553467813101e-04 -8.9766241937819767e-04  -1.0128425693610112e+01 -4.7411438673041777e-07 5.6042659718053002e-07  -1.0137795577441073e+01 7.9147903196011781e-04 -1.6504207932847084e-03  -1.0140468052001523e+01 1.0823898058243534e-03 -2.2621091176767529e-03  -1.0142775460790588e+01 1.3073641460555369e-03 -2.7391793334577150e-03  -1.0143011717345457e+01 -3.3080793740453981e-05 -2.7442481706657640e-03  -1.0145717534433784e+01 1.4707143927067815e-03 -3.0901283948046054e-03  -1.0138533060853931e+01 8.7246465670362430e-04 -8.9162245395603174e-04  -1.0127612168336624e+01 -7.4578451341767614e-07 6.2086874477192672e-07  -1.0137077320979982e+01 1.6012862831777570e-03 -1.6393097068089987e-03  -1.0139756100296299e+01 2.1907925872155874e-03 -2.2469330589637020e-03  -1.0142051494048248e+01 2.6475408978084195e-03 -2.7208529813173704e-03  -1.0144982222895543e+01 2.9802174736146391e-03 -3.0695107910883720e-03  -1.0146849230762264e+01 3.1609309018041515e-03 -4.9185188136095766e-03  -1.0148126468819065e+01 3.1988416355915512e-03 -3.3027694534712004e-03  -1.0137372790296183e+01 1.3157804472042926e-03 -8.8123402564236665e-04  -1.0126339284577906e+01 -1.0027314711929895e-06 6.7858012261537764e-07  -1.0135878845351149e+01 2.4137780626281090e-03 -1.6202230283907716e-03  -1.0138558312441864e+01 3.3007131703245893e-03 -2.2208516630452158e-03  -1.0140835879090460e+01 3.9868922830822752e-03 -2.6893495769662974e-03  -1.0143746352973416e+01 4.4857834898324976e-03 -3.0340565342898171e-03  -1.0145602125892692e+01 4.7552396527835846e-03 -4.8610071115608002e-03  -1.0146863216939856e+01 4.8128736373671040e-03 -3.2647084572983423e-03  -1.0150157382003073e+01 4.9849654843507262e-03 -3.3919932510948015e-03  -1.0135723384196625e+01 1.7622770848841700e-03 -8.6652802558534220e-04  -1.0124603355227128e+01 -1.2370001588973921e-06 7.3319309987862302e-07  -1.0134195527721998e+01 3.2297512485472894e-03 -1.5932276732164383e-03  -1.0136869292780180e+01 4.4120463970013747e-03 -2.1839704763592896e-03  -1.0139122100619169e+01 5.3238308971358759e-03 -2.6448138207766664e-03  -1.0142001995051338e+01 5.9839930943753547e-03 -2.9839478274223466e-03  -1.0145078562180137e+01 6.4141070902560869e-03 -3.2109277487440292e-03  -1.0148324645150044e+01 6.6374124166851314e-03 -3.3362535281542855e-03  -1.0133579149232887e+01 2.2124890467069601e-03 -8.4755493480315452e-04  -1.0122399836757886e+01 -1.4387674191010025e-06 7.8419523674168907e-07  -1.0132021203604250e+01 4.0492260691670397e-03 -1.5584309869148215e-03  -1.0134681690719779e+01 5.5234750743866036e-03 -2.1364563320816401e-03  -1.0136901159313879e+01 6.6551453562988232e-03 -2.5874716948676431e-03  -1.0139738060517006e+01 7.4694506597395294e-03 -2.9194663694866018e-03  -1.0130933287660653e+01 2.6664291027409391e-03 -8.2439255365180069e-04  -1.0119723794072687e+01 -1.5953539367669180e-06 8.3090095367552447e-07  -1.0129348496503573e+01 4.8710994942979388e-03 -1.5159951999259176e-03  -1.0131986440720846e+01 6.6319370199945616e-03 -2.0785573469170302e-03  -1.0134161701347221e+01 7.9753004631443209e-03 -2.5176547595415024e-03  -1.0127778404991073e+01 3.1233823936340980e-03 -7.9715618536692942e-04  -1.0116570553563163e+01 -1.6904198581266494e-06 8.7242541150015873e-07  -1.0126169278029774e+01 5.6927079273465658e-03 -1.4661564367532242e-03  -1.0128773087926318e+01 7.7319609610534508e-03 -2.0106291544399585e-03  -1.0124107209656643e+01 3.5816357216041663e-03 -7.6601140134122472e-04  -1.0112936602892063e+01 -1.7004926968175041e-06 9.0766010867183692e-07  -1.0112081234571903e+01 -1.7467261953410709e-06 1.1315546973986048e-06  -1.0122475290305925e+01 6.5092564280067383e-03 -1.4092484969077984e-03  -1.0119913466980886e+01 4.0381059625236911e-03 -7.3118953563651749e-04  -1.0108820825312259e+01 -1.5985699576841674e-06 9.3525460732768544e-07  -1.0137844904724329e+01 -1.3435505949473173e-03 -4.4238069823828347e-04  -1.0126182033861461e+01 9.5230215294695684e-07 -4.6820404232873215e-08  -1.0127664406495834e+01 7.0100431647344666e-07 2.0427186622592948e-08  -1.0139112736491411e+01 -8.9664123943790277e-04 -4.4835456547993955e-04  -1.0128683365787252e+01 4.3227436635237000e-07 8.7156925608482777e-08  -1.0137800979413502e+01 -1.6485942712444652e-03 -8.2546509072200071e-04  -1.0139890918150037e+01 -4.5213850373736751e-04 -4.5213850395654917e-04  -1.0129241913163623e+01 1.5318107360569301e-07 1.5318110033423948e-07  -1.0138519313808352e+01 -8.3238742473097844e-04 -8.3238742473386036e-04  -1.0141186002095377e+01 -1.1423813878778447e-03 -1.1423813877345435e-03  -1.0140182439039572e+01 -8.9250990097598635e-06 -4.5372385831096652e-04  -1.0129341759635695e+01 -1.3001711186786146e-07 2.1834985002418986e-07  -1.0138756763308015e+01 -1.7817844559818171e-05 -8.3527134947008086e-04  -1.0141440323898724e+01 -2.6398124571068823e-05 -1.1463546823254163e-03  -1.0143757491038038e+01 -3.4606666124574778e-05 -1.3900866270797974e-03  -1.0139988471459759e+01 4.3422355120704888e-04 -4.5310816514721966e-04  -1.0128983198404844e+01 -4.1136875544612203e-07 2.8251727708038093e-07  -1.0138514292855859e+01 7.9662487926109601e-04 -8.3411115136866262e-04  -1.0141209485713112e+01 1.0894079286710686e-03 -1.1447885352629450e-03  -1.0143519612732051e+01 1.3158318804987309e-03 -1.3882089127133805e-03  -1.0146474367871411e+01 1.4802306943838884e-03 -1.5684721126502826e-03  -1.0139308320258598e+01 8.7852991174024728e-04 -4.5029447267699245e-04  -1.0128165083510860e+01 -6.8475953289038912e-07 3.4551024237168463e-07  -1.0137790937752628e+01 1.6124472494366223e-03 -8.2891327837205904e-04  -1.0140492427572827e+01 2.2060414029771869e-03 -1.1376928850722568e-03  -1.0142790318972420e+01 2.6659613051476685e-03 -1.3796389224706167e-03  -1.0145733550851890e+01 3.0009484930232679e-03 -1.5588301483223683e-03  -1.0148891869428246e+01 3.2210975606781112e-03 -1.6800623391361065e-03  -1.0138139464292824e+01 1.3251048101808084e-03 -4.4529175551684570e-04  -1.0126884912956477e+01 -9.4342919750146846e-07 4.0709649373107781e-07  -1.0136583848236290e+01 2.4309147471830083e-03 -8.1969714179277369e-04  -1.0139285880161705e+01 3.3241301165501903e-03 -1.1250982517544091e-03  -1.0141565676170824e+01 4.0151791385209011e-03 -1.3644184164065811e-03  -1.0144488371435040e+01 4.5176201505745389e-03 -1.5416928558198214e-03  -1.0147618956650561e+01 4.8470545277366599e-03 -1.6616549300085925e-03  -1.0150930558271591e+01 5.0204031682457469e-03 -1.7295394264389577e-03  -1.0136477692740325e+01 1.7748296524227045e-03 -4.3811643264512492e-04  -1.0125139022543939e+01 -1.1794199942923593e-06 4.6695255076276934e-07  -1.0134888420391079e+01 3.2527975277802860e-03 -8.0649797744827075e-04  -1.0137584462722918e+01 4.4435277348832325e-03 -1.1070597105344393e-03  -1.0139839179196267e+01 5.3618426165361133e-03 -1.3426223927217543e-03  -1.0142730904252172e+01 6.0267577223532681e-03 -1.5171541770437336e-03  -1.0145820718275123e+01 6.4600027618985601e-03 -1.6352996124932458e-03  -1.0149083702589586e+01 6.6849785069741713e-03 -1.7022027737297097e-03  -1.0152401571996119e+01 6.7256854902204470e-03 -1.7232598734088825e-03  -1.0134317346307757e+01 2.2282212571050407e-03 -4.2879501367101348e-04  -1.0122922905245575e+01 -1.3829326482750828e-06 5.2463339524296488e-07  -1.0132698521933007e+01 4.0780799415688941e-03 -7.8937181757630611e-04  -1.0135380851180361e+01 5.5628632046216429e-03 -1.0836637830524542e-03  -1.0137601848468533e+01 6.7026695584190901e-03 -1.3143674873851796e-03  -1.0140450071960142e+01 7.5228795854425457e-03 -1.4853589587550350e-03  -1.0143483633590654e+01 8.0522201909053234e-03 -1.6011662515633726e-03  -1.0146679775620710e+01 8.3213367055896079e-03 -1.6668137933427390e-03  -1.0149921758251123e+01 8.3613818747037896e-03 -1.6875749882216068e-03  -1.0131651681537923e+01 2.6852680582165039e-03 -4.1736791331129641e-04  -1.0120231681311916e+01 -1.5413436283382326e-06 5.7953930578901117e-07  -1.0130006827781191e+01 4.9056105945220682e-03 -7.6840263990955184e-04  -1.0132666023824951e+01 6.6790032189314131e-03 -1.0550383318703525e-03  -1.0134842364904097e+01 8.0320330151201231e-03 -1.2798240025001205e-03  -1.0136940305078699e+01 8.9339533266591109e-03 -2.8410206864966795e-03  -1.0137631653708562e+01 8.9976733472169907e-03 -1.4465164947578171e-03  -1.0140590136748690e+01 9.6128000070537165e-03 -1.5594980518284858e-03  -1.0128473386751033e+01 3.1452223098114977e-03 -4.0389448957796174e-04  -1.0117060758134325e+01 -1.6383907913033848e-06 6.3088560710577902e-07  -1.0126805287889802e+01 5.7326615621837353e-03 -7.4371178707547205e-04  -1.0129429594368194e+01 7.7863833646199488e-03 -1.0213655652809770e-03  -1.0131547238539332e+01 9.3410980890991854e-03 -1.2392316686398760e-03  -1.0134258270514232e+01 1.0438992166741979e-02 -1.4009182026759551e-03  -1.0137118424490287e+01 1.1126569232561731e-02 -1.5106303477795068e-03  -1.0124775292091378e+01 3.6063273907140717e-03 -3.8845936056447982e-04  -1.0113406738427772e+01 -1.6507374442592228e-06 6.7767036699309982e-07  -1.0123085759235183e+01 6.5543539521793273e-03 -7.1546975280189194e-04  -1.0125660243545600e+01 8.8761480944645754e-03 -9.8289826806384614e-04  -1.0127700999932326e+01 1.0616733639360523e-02 -1.1929192350730617e-03  -1.0120551336091513e+01 4.0654441740856561e-03 -3.7118006693017118e-04  -1.0109268664654792e+01 -1.5514622283772260e-06 7.1864692364917362e-07  -1.0118840845803328e+01 7.3628798097534207e-03 -6.8391044565696145e-04  -1.0121346259129528e+01 9.9350081707518870e-03 -9.3997936908458328e-04  -1.0115193299562426e+01 4.4878288611324155e-03 -6.9300608084106651e-04  -1.0115797880947943e+01 4.5175374646801566e-03 -3.5221616454589311e-04  -1.0104226202834408e+01 -1.3247361683425671e-06 9.5359572150268653e-07  -1.0104649734102296e+01 -1.2810466146507710e-06 7.5228665614291697e-07  -1.0114065005571760e+01 8.1464374431814736e-03 -6.4934806181418008e-04  -1.0110515514761570e+01 4.9548861479047895e-03 -3.3177983115503996e-04  -1.0099559695607526e+01 -8.3289131248472544e-07 7.7677342115677771e-07  -1.0099162199078977e+01 -8.7286391859549679e-07 9.6081742791643563e-07  -1.0108756001635822e+01 8.8876453332479410e-03 -6.1219671024833103e-04  -1.0104711554725927e+01 5.3660628602714960e-03 -3.1014824746658992e-04  -1.0094018273750342e+01 1.1905607883920394e-07 7.8987973593573733e-07  -1.0124232199020305e+01 1.1777071061985908e-06 -1.1432560128147468e-07  -1.0124325899979921e+01 1.2415088117731217e-06 -3.8242397528907532e-07  -1.0126277966913680e+01 1.0169539307513402e-06 -3.2094809279669932e-07  -1.0136361536680807e+01 -1.7986517921504746e-03 -7.3558250561599649e-06  -1.0138129335279698e+01 -1.3473506558774571e-03 -7.9040204050987999e-06  -1.0127762110831787e+01 7.6609222047346929e-07 -2.5817589523682685e-07  -1.0139401419214044e+01 -8.9933722737789922e-04 -8.4273501692818349e-06  -1.0128782375524636e+01 4.9750592621237753e-07 -1.9444976321779291e-07  -1.0136831292987374e+01 -2.4746686175632399e-03 -1.5990958338197916e-05  -1.0138036474297500e+01 -1.6535197007897949e-03 -1.6929945673003264e-05  -1.0140182439039510e+01 -4.5372385834310732e-04 -8.9250988548893318e-06  -1.0129341759635688e+01 2.1834983521228038e-07 -1.3001710201445490e-07  -1.0138756763308031e+01 -8.3527134943716134e-04 -1.7817844328736056e-05  -1.0141440323898756e+01 -1.1463546825706110e-03 -2.6398124425251698e-05  -1.0140475378931120e+01 -9.3969948598758830e-06 -9.3969948562293502e-06  -1.0129441973133909e+01 -6.5064345834373418e-08 -6.5064378795867513e-08  -1.0138995012344481e+01 -1.8653991421121928e-05 -1.8653991170732508e-05  -1.0141695614648075e+01 -2.7564057786246670e-05 -2.7564057696854705e-05  -1.0144010561345130e+01 -3.6032930891508717e-05 -3.6032930933953375e-05  -1.0140281409375305e+01 4.3486488563702620e-04 -9.8430687939777052e-06  -1.0129083309615686e+01 -3.4676314149341048e-07 2.5316741032504053e-10  -1.0138752185385449e+01 7.9783618475642003e-04 -1.9438294692901747e-05  -1.0141464496670466e+01 1.0910491926809851e-03 -2.8653259719351177e-05  -1.0143772271802625e+01 1.3178074166241014e-03 -3.7358632670681439e-05  -1.0146731534683857e+01 1.4824435893848330e-03 -4.5451474310393894e-05  -1.0139599836171193e+01 8.8028132385605407e-04 -1.0263522982617976e-05  -1.0128264624874014e+01 -6.2064213798186482e-07 6.5778219035524213e-08  -1.0138027318892810e+01 1.6156992968447902e-03 -2.0171017424925832e-05  -1.0140745910536037e+01 2.2104794538883254e-03 -2.9665817292691327e-05  -1.0143041318607283e+01 2.6713245316338963e-03 -3.8583550060147834e-05  -1.0145988970768405e+01 3.0069856582603258e-03 -4.6834117140192063e-05  -1.0149151135494908e+01 3.2275817531149300e-03 -5.4341494250193934e-05  -1.0138428141982288e+01 1.3279597946151895e-03 -1.0658613409116831e-05  -1.0126983420179558e+01 -8.7998338225639466e-07 1.3131914502084263e-07  -1.0136817566639388e+01 2.4361936151516906e-03 -2.0852581