<?xml version="1.0"?>
<VTKFile type="UnstructuredGrid"  version="0.1"  >
<UnstructuredGrid>
<Piece  NumberOfPoints="7630" NumberOfCells="38698">
<Points>
<DataArray  type="Float64"  NumberOfComponents="3"  format="ascii">0.15 0 0.225  0.175 0 0.225  0.175 0 0.25  0.175 0.025 0.25  0.15 0 0.25  0.2 0 0.225  0.2 0 0.25  0.2 0.025 0.25  0.225 0 0.25  0.225 0.025 0.25  0.175 0.025 0.275  0.175 0 0.275  0.15 0 0.275  0.2 0.025 0.275  0.2 0 0.275  0.225 0.025 0.275  0.225 0 0.275  0.25 0 0.25  0.25 0 0.275  0.25 0.025 0.275  0.275 0 0.275  0.275 0.025 0.275  0.2 0.05 0.275  0.225 0.05 0.275  0.25 0.05 0.275  0.175 0.025 0.3  0.175 0 0.3  0.15 0 0.3  0.2 0.025 0.3  0.2 0 0.3  0.225 0.025 0.3  0.225 0 0.3  0.25 0.025 0.3  0.25 0 0.3  0.275 0.025 0.3  0.275 0 0.3  0.3 0 0.275  0.3 0 0.3  0.3 0.025 0.3  0.325 0 0.275  0.325 0 0.3  0.325 0.025 0.3  0.35 0 0.275  0.35 0 0.3  0.35 0.025 0.3  0.375 0 0.275  0.375 0 0.3  0.375 0.025 0.3  0.4 0 0.275  0.4 0 0.3  0.4 0.025 0.3  0.425 0 0.275  0.425 0 0.3  0.425 0.025 0.3  0.45 0 0.275  0.45 0 0.3  0.45 0.025 0.3  0.475 0 0.3  0.475 0.025 0.3  0.2 0.05 0.3  0.225 0.05 0.3  0.25 0.05 0.3  0.275 0.05 0.275  0.275 0.05 0.3  0.3 0.05 0.3  0.225 0.075 0.3  0.2 0.075 0.3  0.2 0.075 0.275  0.25 0.075 0.3  0.275 0.075 0.3  0.3 0.075 0.3  0.225 0.1 0.3  0.175 0.025 0.325  0.175 0 0.325  0.15 0 0.325  0.2 0.025 0.325  0.2 0 0.325  0.225 0.025 0.325  0.225 0 0.325  0.25 0.025 0.325  0.25 0 0.325  0.275 0.025 0.325  0.275 0 0.325  0.3 0.025 0.325  0.3 0 0.325  0.325 0.025 0.325  0.325 0 0.325  0.35 0.025 0.325  0.35 0 0.325  0.375 0.025 0.325  0.375 0 0.325  0.4 0.025 0.325  0.4 0 0.325  0.425 0.025 0.325  0.425 0 0.325  0.45 0.025 0.325  0.45 0 0.325  0.475 0.025 0.325  0.475 0 0.325  0.5 0 0.3  0.5 0 0.325  0.5 0.025 0.325  0.525 0 0.325  0.525 0.025 0.325  0.2 0.05 0.325  0.225 0.05 0.325  0.25 0.05 0.325  0.275 0.05 0.325  0.3 0.05 0.325  0.325 0.05 0.3  0.325 0.05 0.325  0.35 0.05 0.3  0.35 0.05 0.325  0.375 0.05 0.3  0.375 0.05 0.325  0.4 0.05 0.325  0.425 0.05 0.325  0.45 0.05 0.325  0.475 0.05 0.325  0.5 0.05 0.325  0.225 0.075 0.325  0.2 0.075 0.325  0.25 0.075 0.325  0.275 0.075 0.325  0.3 0.075 0.325  0.325 0.075 0.3  0.325 0.075 0.325  0.35 0.075 0.325  0.375 0.075 0.325  0.4 0.075 0.325  0.225 0.1 0.325  0.25 0.1 0.3  0.25 0.1 0.325  0.275 0.1 0.325  0.3 0.1 0.325  0.325 0.1 0.325  0.35 0.1 0.325  0.25 0.125 0.3  0.25 0.125 0.325  0.275 0.125 0.325  0.275 0.15 0.325  0.175 0.025 0.35  0.175 0 0.35  0.15 0 0.35  0.2 0.025 0.35  0.2 0 0.35  0.225 0.025 0.35  0.225 0 0.35  0.25 0.025 0.35  0.25 0 0.35  0.275 0.025 0.35  0.275 0 0.35  0.3 0.025 0.35  0.3 0 0.35  0.325 0.025 0.35  0.325 0 0.35  0.35 0.025 0.35  0.35 0 0.35  0.375 0.025 0.35  0.375 0 0.35  0.4 0.025 0.35  0.4 0 0.35  0.425 0.025 0.35  0.425 0 0.35  0.45 0.025 0.35  0.45 0 0.35  0.475 0.025 0.35  0.475 0 0.35  0.5 0.025 0.35  0.5 0 0.35  0.525 0.025 0.35  0.525 0 0.35  0.55 0 0.325  0.55 0.025 0.325  0.55 0.025 0.35  0.55 0 0.35  0.575 0 0.325  0.575 0 0.35  0.575 0.025 0.35  0.6 0 0.35  0.6 0.025 0.35  0.2 0.05 0.35  0.225 0.05 0.35  0.25 0.05 0.35  0.275 0.05 0.35  0.3 0.05 0.35  0.325 0.05 0.35  0.35 0.05 0.35  0.375 0.05 0.35  0.4 0.05 0.35  0.425 0.05 0.35  0.45 0.05 0.35  0.475 0.05 0.35  0.5 0.05 0.35  0.525 0.05 0.35  0.55 0.05 0.35  0.575 0.05 0.35  0.225 0.075 0.35  0.25 0.075 0.35  0.275 0.075 0.35  0.3 0.075 0.35  0.325 0.075 0.35  0.35 0.075 0.35  0.375 0.075 0.35  0.4 0.075 0.35  0.425 0.075 0.325  0.425 0.075 0.35  0.45 0.075 0.325  0.45 0.075 0.35  0.475 0.075 0.35  0.5 0.075 0.35  0.525 0.075 0.35  0.225 0.1 0.35  0.25 0.1 0.35  0.275 0.1 0.35  0.3 0.1 0.35  0.325 0.1 0.35  0.35 0.1 0.35  0.375 0.1 0.35  0.4 0.1 0.325  0.4 0.1 0.35  0.425 0.1 0.325  0.425 0.1 0.35  0.45 0.1 0.35  0.475 0.1 0.35  0.25 0.125 0.35  0.275 0.125 0.35  0.3 0.125 0.325  0.3 0.125 0.35  0.325 0.125 0.325  0.325 0.125 0.35  0.35 0.125 0.325  0.35 0.125 0.35  0.375 0.125 0.35  0.425 0.125 0.35  0.4 0.125 0.35  0.45 0.125 0.35  0.275 0.15 0.35  0.3 0.15 0.35  0.325 0.15 0.35  0.35 0.15 0.35  0.375 0.15 0.35  0.3 0.175 0.35  0.175 0.025 0.375  0.175 0 0.375  0.15 0 0.375  0.2 0.025 0.375  0.2 0 0.375  0.225 0.025 0.375  0.225 0 0.375  0.25 0.025 0.375  0.25 0 0.375  0.275 0.025 0.375  0.275 0 0.375  0.3 0.025 0.375  0.3 0 0.375  0.325 0.025 0.375  0.325 0 0.375  0.35 0.025 0.375  0.35 0 0.375  0.375 0.025 0.375  0.375 0 0.375  0.4 0.025 0.375  0.4 0 0.375  0.425 0.025 0.375  0.425 0 0.375  0.45 0.025 0.375  0.45 0 0.375  0.475 0.025 0.375  0.475 0 0.375  0.5 0.025 0.375  0.5 0 0.375  0.525 0.025 0.375  0.525 0 0.375  0.55 0.025 0.375  0.55 0 0.375  0.575 0.025 0.375  0.575 0 0.375  0.6 0.025 0.375  0.6 0 0.375  0.625 0 0.35  0.625 0 0.375  0.625 0.025 0.375  0.65 0.025 0.375  0.2 0.05 0.375  0.225 0.05 0.375  0.25 0.05 0.375  0.275 0.05 0.375  0.3 0.05 0.375  0.325 0.05 0.375  0.35 0.05 0.375  0.375 0.05 0.375  0.4 0.05 0.375  0.425 0.05 0.375  0.45 0.05 0.375  0.475 0.05 0.375  0.5 0.05 0.375  0.525 0.05 0.375  0.55 0.05 0.375  0.575 0.05 0.375  0.6 0.05 0.35  0.6 0.05 0.375  0.625 0.05 0.375  0.225 0.075 0.375  0.25 0.075 0.375  0.275 0.075 0.375  0.3 0.075 0.375  0.325 0.075 0.375  0.35 0.075 0.375  0.375 0.075 0.375  0.4 0.075 0.375  0.425 0.075 0.375  0.45 0.075 0.375  0.475 0.075 0.375  0.5 0.075 0.375  0.525 0.075 0.375  0.55 0.075 0.35  0.55 0.075 0.375  0.575 0.075 0.35  0.575 0.075 0.375  0.6 0.075 0.375  0.625 0.075 0.375  0.25 0.1 0.375  0.225 0.1 0.375  0.275 0.1 0.375  0.3 0.1 0.375  0.325 0.1 0.375  0.35 0.1 0.375  0.375 0.1 0.375  0.4 0.1 0.375  0.425 0.1 0.375  0.45 0.1 0.375  0.475 0.1 0.375  0.5 0.1 0.35  0.5 0.1 0.375  0.525 0.1 0.375  0.55 0.1 0.375  0.575 0.1 0.375  0.6 0.1 0.375  0.25 0.125 0.375  0.275 0.125 0.375  0.3 0.125 0.375  0.325 0.125 0.375  0.35 0.125 0.375  0.375 0.125 0.375  0.4 0.125 0.375  0.425 0.125 0.375  0.45 0.125 0.375  0.475 0.125 0.375  0.5 0.125 0.375  0.525 0.125 0.375  0.275 0.15 0.375  0.3 0.15 0.375  0.325 0.15 0.375  0.35 0.15 0.375  0.375 0.15 0.375  0.4 0.15 0.35  0.4 0.15 0.375  0.425 0.15 0.35  0.425 0.15 0.375  0.45 0.15 0.35  0.45 0.15 0.375  0.475 0.15 0.375  0.3 0.175 0.375  0.325 0.175 0.35  0.325 0.175 0.375  0.35 0.175 0.35  0.35 0.175 0.375  0.375 0.175 0.35  0.375 0.175 0.375  0.4 0.175 0.375  0.425 0.175 0.375  0.45 0.175 0.375  0.475 0.175 0.375  0.325 0.2 0.35  0.325 0.2 0.375  0.3 0.2 0.35  0.35 0.2 0.35  0.35 0.2 0.375  0.375 0.2 0.375  0.4 0.2 0.375  0.325 0.225 0.35  0.325 0.225 0.375  0.3 0.225 0.35  0.35 0.225 0.375  0.375 0.225 0.375  0.325 0.25 0.375  0.35 0.25 0.375  0.175 0.025 0.4  0.175 0 0.4  0.2 0.025 0.4  0.2 0 0.4  0.225 0.025 0.4  0.225 0 0.4  0.25 0.025 0.4  0.25 0 0.4  0.275 0.025 0.4  0.275 0 0.4  0.3 0.025 0.4  0.3 0 0.4  0.325 0.025 0.4  0.325 0 0.4  0.35 0.025 0.4  0.35 0 0.4  0.375 0.025 0.4  0.375 0 0.4  0.4 0.025 0.4  0.4 0 0.4  0.425 0.025 0.4  0.425 0 0.4  0.45 0.025 0.4  0.45 0 0.4  0.475 0.025 0.4  0.475 0 0.4  0.5 0.025 0.4  0.5 0 0.4  0.525 0.025 0.4  0.525 0 0.4  0.55 0.025 0.4  0.55 0 0.4  0.575 0.025 0.4  0.575 0 0.4  0.6 0.025 0.4  0.6 0 0.4  0.625 0.025 0.4  0.625 0 0.4  0.65 0.025 0.4  0.2 0.05 0.4  0.225 0.05 0.4  0.25 0.05 0.4  0.275 0.05 0.4  0.3 0.05 0.4  0.325 0.05 0.4  0.35 0.05 0.4  0.375 0.05 0.4  0.4 0.05 0.4  0.425 0.05 0.4  0.45 0.05 0.4  0.475 0.05 0.4  0.5 0.05 0.4  0.525 0.05 0.4  0.55 0.05 0.4  0.575 0.05 0.4  0.6 0.05 0.4  0.625 0.05 0.4  0.65 0.05 0.4  0.675 0.05 0.4  0.225 0.075 0.4  0.25 0.075 0.4  0.275 0.075 0.4  0.3 0.075 0.4  0.325 0.075 0.4  0.35 0.075 0.4  0.375 0.075 0.4  0.4 0.075 0.4  0.425 0.075 0.4  0.45 0.075 0.4  0.475 0.075 0.4  0.5 0.075 0.4  0.525 0.075 0.4  0.55 0.075 0.4  0.575 0.075 0.4  0.6 0.075 0.4  0.625 0.075 0.4  0.65 0.075 0.4  0.25 0.1 0.4  0.225 0.1 0.4  0.275 0.1 0.4  0.3 0.1 0.4  0.325 0.1 0.4  0.35 0.1 0.4  0.375 0.1 0.4  0.4 0.1 0.4  0.425 0.1 0.4  0.45 0.1 0.4  0.475 0.1 0.4  0.5 0.1 0.4  0.525 0.1 0.4  0.55 0.1 0.4  0.575 0.1 0.4  0.6 0.1 0.4  0.625 0.1 0.4  0.65 0.1 0.4  0.25 0.125 0.4  0.275 0.125 0.4  0.3 0.125 0.4  0.325 0.125 0.4  0.35 0.125 0.4  0.375 0.125 0.4  0.4 0.125 0.4  0.425 0.125 0.4  0.45 0.125 0.4  0.475 0.125 0.4  0.5 0.125 0.4  0.525 0.125 0.4  0.55 0.125 0.375  0.55 0.125 0.4  0.575 0.125 0.375  0.575 0.125 0.4  0.6 0.125 0.375  0.6 0.125 0.4  0.625 0.125 0.4  0.275 0.15 0.4  0.3 0.15 0.4  0.325 0.15 0.4  0.35 0.15 0.4  0.375 0.15 0.4  0.4 0.15 0.4  0.425 0.15 0.4  0.45 0.15 0.4  0.475 0.15 0.4  0.5 0.15 0.375  0.5 0.15 0.4  0.525 0.15 0.4  0.55 0.15 0.4  0.575 0.15 0.4  0.6 0.15 0.4  0.625 0.15 0.4  0.3 0.175 0.4  0.325 0.175 0.4  0.35 0.175 0.4  0.375 0.175 0.4  0.4 0.175 0.4  0.425 0.175 0.4  0.45 0.175 0.4  0.475 0.175 0.4  0.5 0.175 0.375  0.5 0.175 0.4  0.525 0.175 0.4  0.325 0.2 0.4  0.3 0.2 0.4  0.35 0.2 0.4  0.375 0.2 0.4  0.4 0.2 0.4  0.425 0.2 0.375  0.425 0.2 0.4  0.45 0.2 0.375  0.45 0.2 0.4  0.475 0.2 0.375  0.475 0.2 0.4  0.5 0.2 0.4  0.525 0.2 0.4  0.35 0.225 0.4  0.325 0.225 0.4  0.375 0.225 0.4  0.4 0.225 0.4  0.425 0.225 0.4  0.45 0.225 0.4  0.475 0.225 0.4  0.5 0.225 0.4  0.35 0.25 0.4  0.325 0.25 0.4  0.375 0.25 0.375  0.375 0.25 0.4  0.4 0.25 0.4  0.35 0.275 0.375  0.35 0.275 0.4  0.325 0.275 0.375  0.375 0.275 0.4  0.4 0.275 0.4  0.35 0.3 0.4  0.375 0.3 0.4  0.2 0.025 0.425  0.2 0 0.425  0.225 0.025 0.425  0.225 0 0.425  0.25 0.025 0.425  0.25 0 0.425  0.275 0.025 0.425  0.275 0 0.425  0.3 0.025 0.425  0.3 0 0.425  0.325 0.025 0.425  0.325 0 0.425  0.35 0.025 0.425  0.35 0 0.425  0.375 0.025 0.425  0.375 0 0.425  0.4 0.025 0.425  0.4 0 0.425  0.425 0.025 0.425  0.425 0 0.425  0.45 0.025 0.425  0.45 0 0.425  0.475 0.025 0.425  0.475 0 0.425  0.5 0.025 0.425  0.5 0 0.425  0.525 0.025 0.425  0.525 0 0.425  0.55 0.025 0.425  0.55 0 0.425  0.575 0.025 0.425  0.575 0 0.425  0.6 0.025 0.425  0.6 0 0.425  0.625 0.025 0.425  0.625 0 0.425  0.65 0 0.425  0.65 0.025 0.425  0.2 0.05 0.425  0.225 0.05 0.425  0.25 0.05 0.425  0.275 0.05 0.425  0.3 0.05 0.425  0.325 0.05 0.425  0.35 0.05 0.425  0.375 0.05 0.425  0.4 0.05 0.425  0.425 0.05 0.425
[...]
<PointData  Vectors="f_123"> 
<DataArray  type="Float64"  Name="f_123"  NumberOfComponents="3" format="ascii">-1.0010996299750783e+01 -1.4953949090630038e-03 -6.0696063508178192e-03  -1.0006236808418558e+01 -1.3879193277536433e-03 -6.2986462833487600e-03  -1.0006380666869752e+01 -1.4711714565093226e-03 -6.0116370530436955e-03  -1.0023523739620883e+01 -4.1522064568895022e-03 -6.1505300130698928e-03  -1.0011330150961527e+01 -1.5821912707064336e-03 -5.7682400588504193e-03  -1.0001841052393813e+01 -1.2743730351821880e-03 -6.3461424562658714e-03  -1.0001818593345552e+01 -1.3527065125520047e-03 -6.0809001480587790e-03  -1.0020000594790984e+01 -3.8515369953851871e-03 -6.2139265570007682e-03  -9.9976529946359669e+00 -1.2312353941418912e-03 -5.9981582291769404e-03  -1.0016723541965597e+01 -3.5298360152474805e-03 -6.1233155403016990e-03  -1.0024192258988080e+01 -4.3636550609402400e-03 -5.7491259115326670e-03  -1.0006538885591238e+01 -1.5456341321715707e-03 -5.6246647106221858e-03  -1.0011667228708172e+01 -1.6593127422499330e-03 -5.3772542429552763e-03  -1.0020562553589631e+01 -4.0527436185214113e-03 -5.8288156096016558e-03  -1.0001818009768961e+01 -1.4231942405051913e-03 -5.7088768921533329e-03  -1.0017194828293823e+01 -3.7179007031629208e-03 -5.7622928999008843e-03  -9.9975142886396480e+00 -1.2968470017019611e-03 -5.6488163342486393e-03  -9.9938840516315022e+00 -1.1094175669793492e-03 -5.7851392583048314e-03  -9.9936272653272997e+00 -1.1695605089638119e-03 -5.4636408136804829e-03  -1.0014110050040491e+01 -3.3709005064372134e-03 -5.5692243781980321e-03  -9.9901509025011155e+00 -1.0431214873372514e-03 -5.1717472061066708e-03  -1.0011319459669551e+01 -3.0192122336851241e-03 -5.2684024895950539e-03  -1.0036819461119540e+01 -8.0203638281285926e-03 -6.1338801739973308e-03  -1.0034352329068401e+01 -7.4101089531770203e-03 -6.0497909407291137e-03  -1.0032049418207141e+01 -6.7578151688489768e-03 -5.8356067898679290e-03  -1.0024787411957123e+01 -4.5508774413282101e-03 -5.2673119718782387e-03  -1.0006703113102660e+01 -1.6113833063879058e-03 -5.1573476297038469e-03  -1.0011996250330107e+01 -1.7270361404451433e-03 -4.9152427691455912e-03  -1.0021054469590062e+01 -4.2317881781894504e-03 -5.3564034863251642e-03  -1.0001834150483219e+01 -1.4857515953443257e-03 -5.2498818752679316e-03  -1.0017597421165995e+01 -3.8860156022222218e-03 -5.3100236304662336e-03  -9.9974001592227211e+00 -1.3553480815406609e-03 -5.2087579015900418e-03  -1.0014437070243922e+01 -3.5261571824502158e-03 -5.1451730797179365e-03  -9.9934005870476916e+00 -1.2234100289472412e-03 -5.0505412695238151e-03  -1.0011583803014144e+01 -3.1603055491360257e-03 -4.8784661948332144e-03  -9.9898285297114970e+00 -1.0919266819802401e-03 -4.7914993989980970e-03  -9.9870763178007138e+00 -9.1855117388117528e-04 -4.7901864682827556e-03  -9.9866737925948481e+00 -9.6206863895218148e-04 -4.4469971554104790e-03  -1.0009041491759248e+01 -2.7935805510565970e-03 -4.5255415470930446e-03  -9.9843934603472793e+00 -7.9636278906515350e-04 -4.3343737118869156e-03  -9.9839248052153593e+00 -8.3445628223022847e-04 -4.0311563558045396e-03  -1.0006810036244541e+01 -2.4290838786621143e-03 -4.1007337497895703e-03  -9.9820921634178887e+00 -6.7672537600109916e-04 -3.8180045622182752e-03  -9.9815698419983256e+00 -7.0933256789044205e-04 -3.5567097642372116e-03  -1.0004887048399077e+01 -2.0685201682437322e-03 -3.6169380220139754e-03  -9.9801628190017802e+00 -5.5957142341526078e-04 -3.2531109216549278e-03  -9.9795978118293149e+00 -5.8667797775339753e-04 -3.0349940132754437e-03  -1.0003268989286148e+01 -1.7126134691227697e-03 -3.0856123071640990e-03  -9.9785968186450464e+00 -4.4466932512198209e-04 -2.6502077246380643e-03  -9.9779987750452381e+00 -4.6628896173976728e-04 -2.4760387853105209e-03  -1.0001951947782972e+01 -1.3613942566763411e-03 -2.5168744916661346e-03  -9.9773868462918820e+00 -3.3167339392081946e-04 -2.0184968614880925e-03  -9.9767642849681692e+00 -3.4783283232042744e-04 -1.8887206608643970e-03  -1.0000932178822442e+01 -1.0144027286486195e-03 -1.9196632852528537e-03  -9.9765270745231422e+00 -2.2015934952121762e-04 -1.3661054839961399e-03  -9.9758876140839199e+00 -2.3088725771285335e-04 -1.2809590058451663e-03  -1.0000206475595059e+01 -6.7083721211727001e-04 -1.3019402977482281e-03  -9.9753639022455722e+00 -1.1496966979910602e-04 -6.5993819169838242e-04  -9.9997724229039271e+00 -3.2966660238814642e-04 -6.7091776002959247e-04  -1.0037775086659456e+01 -8.3790764201711991e-03 -5.6268549412852899e-03  -1.0035257164271721e+01 -7.7483728276370230e-03 -5.5660219639698891e-03  -1.0032914003839920e+01 -7.0713474626274185e-03 -5.3833150333935011e-03  -1.0029934032412559e+01 -6.0825968217263120e-03 -5.5112087505782489e-03  -1.0030767880263715e+01 -6.3684359909356239e-03 -5.0963061851664873e-03  -1.0028833096130864e+01 -5.6531207329542834e-03 -4.7213708124997956e-03  -1.0050691922160993e+01 -1.0194704313831657e-02 -5.9439599808081243e-03  -1.0052340484919005e+01 -1.0943868953742514e-02 -6.0251398230127982e-03  -1.0050936829182287e+01 -1.0473920559339007e-02 -6.5822029221020255e-03  -1.0049117445040364e+01 -9.3592637078002677e-03 -5.7355846116186856e-03  -1.0047644960162771e+01 -8.4695465271995649e-03 -5.4190560877635857e-03  -1.0046294822453007e+01 -7.5475190861184829e-03 -5.0118874715102237e-03  -1.0064186201632078e+01 -1.2077165040030730e-02 -6.4128597371924893e-03  -1.0025311619692584e+01 -4.7141747949598330e-03 -4.7216808332844187e-03  -1.0006865737359730e+01 -1.6686023935810355e-03 -4.6261026767068459e-03  -1.0012307455430834e+01 -1.7857059442767849e-03 -4.3974239359605054e-03  -1.0021481913835805e+01 -4.3886083285541808e-03 -4.8138508821834606e-03  -1.0001861895027583e+01 -1.5404255321406770e-03 -4.7208587773151078e-03  -1.0017940008065054e+01 -4.0338341133206350e-03 -4.7836108208582050e-03  -9.9973080994934662e+00 -1.4066782635835536e-03 -4.6948474763558413e-03  -1.0014706892129382e+01 -3.6631521604709701e-03 -4.6453751532340775e-03  -9.9932040753368110e+00 -1.2708277277731241e-03 -4.5621182496817540e-03  -1.0011792462658958e+01 -3.2851981659192562e-03 -4.4135172878714138e-03  -9.9895424526580445e+00 -1.1350399516415820e-03 -4.3367473147695049e-03  -1.0009199685977277e+01 -2.9055054586304007e-03 -4.1017984021589149e-03  -9.9863121081038067e+00 -1.0006191424300455e-03 -4.0322560986325072e-03  -1.0006927337001237e+01 -2.5274838264677879e-03 -3.7230213063151750e-03  -9.9835002930813523e+00 -8.6828427084857912e-04 -3.6612565155107754e-03  -1.0004971829240342e+01 -2.1530609430562187e-03 -3.2888577037260992e-03  -9.9810940129248849e+00 -7.3834867154960954e-04 -3.2352706920848839e-03  -1.0003328455370227e+01 -1.7831160027032967e-03 -2.8098048847642219e-03  -9.9790809303839669e+00 -6.1084073949539902e-04 -2.7646808606753949e-03  -1.0001992237494783e+01 -1.4177812479592732e-03 -2.2952361485318032e-03  -9.9774499622078761e+00 -4.8558721498893339e-04 -2.2587735966176021e-03  -1.0000958513277185e+01 -1.0566575390073083e-03 -1.7535171155495615e-03  -9.9761916746376009e+00 -3.6227215582528406e-04 -1.7258504999925184e-03  -1.0000223339086984e+01 -6.9897319340000129e-04 -1.1921669614526698e-03  -9.9752985450038434e+00 -2.4047988550918373e-04 -1.1733842905638134e-03  -9.9997837625326849e+00 -3.4370539676715399e-04 -6.1804923664424279e-04  -9.9747651322834958e+00 -1.1972735575844763e-04 -6.0820490612637813e-04  -9.9751902499735507e+00 4.3979170627198661e-07 -3.2345526168452060e-05  -9.9745881836900185e+00 5.1031633149487102e-07 -3.6704511329882596e-05  -9.9996379978529095e+00 1.0322456806537382e-05 -3.7581273745083037e-05  -9.9747666937647157e+00 1.2077841278222053e-04 5.3494655425156252e-04  -9.9997855247308784e+00 3.6435769999344417e-04 5.4304568201612156e-04  -1.0038592847493678e+01 -8.6942220013290043e-03 -5.0494793753305244e-03  -1.0036022818483001e+01 -8.0466759719236332e-03 -5.0074787084977597e-03  -1.0033637032303549e+01 -7.3487935793393258e-03 -4.8543387647604361e-03  -1.0031457100553512e+01 -6.6221606769080845e-03 -4.6052559098575790e-03  -1.0029496319315854e+01 -5.8811431745585197e-03 -4.2746376899335387e-03  -1.0027118519952564e+01 -4.9340977037569825e-03 -4.2733999140598970e-03  -1.0027762384611272e+01 -5.1351023690948015e-03 -3.8757861274945813e-03  -1.0025629351836205e+01 -4.2167108411630041e-03 -3.7656988902387218e-03  -1.0026259287155369e+01 -4.3898702556863954e-03 -3.4207504404073783e-03  -1.0024368368896454e+01 -3.5039263655191216e-03 -3.2100187788037184e-03  -1.0024988648305872e+01 -3.6487589079730056e-03 -2.9203060359781607e-03  -1.0023950667864900e+01 -2.9132700781987131e-03 -2.3840244916211060e-03  -1.0023144798167946e+01 -2.1836075165159760e-03 -1.8204070181777464e-03  -1.0022570220745985e+01 -1.4590579550877261e-03 -1.2370607799996626e-03  -1.0022226176203764e+01 -7.3828479554086362e-04 -6.4090310808021759e-04  -1.0022112180445957e+01 -1.9565198382401913e-05 -3.8383010205793799e-05  -1.0051865969075855e+01 -1.0588006530158515e-02 -5.3384700069226722e-03  -1.0053536389616937e+01 -1.1357839823216410e-02 -5.3970779337019457e-03  -1.0050277123662489e+01 -9.7261988977416728e-03 -5.1638377982715002e-03  -1.0048796796883792e+01 -8.8059726245424460e-03 -4.8896414418151089e-03  -1.0047444129680207e+01 -7.8505048152621784e-03 -4.5312847931708701e-03  -1.0045081756963532e+01 -6.6080576601749395e-03 -4.5298335291238103e-03  -1.0046232537510754e+01 -6.8755957473880958e-03 -4.1028419373896775e-03  -1.0045171278183766e+01 -5.8917351963798303e-03 -3.6169479674000261e-03  -1.0044266623882271e+01 -4.9055576500150614e-03 -3.0848116406023739e-03  -1.0043522732909302e+01 -3.9208897212058107e-03 -2.5163150733095640e-03  -1.0065751177884176e+01 -1.2545806825394955e-02 -5.7499464271013141e-03  -1.0063313994234997e+01 -1.1152408258192303e-02 -6.1737624310748444e-03  -1.0064890763721451e+01 -1.1591026595260524e-02 -5.5495127849780612e-03  -1.0064059019596343e+01 -1.0544436066308947e-02 -5.2447191791466707e-03  -1.0063276589658120e+01 -9.4376273881861383e-03 -4.8522496822525378e-03  -1.0062559354968947e+01 -8.2929281717861979e-03 -4.3871791972961592e-03  -1.0061919403898809e+01 -7.1258290818931123e-03 -3.8629093790148047e-03  -1.0075746000397995e+01 -1.2328983869244758e-02 -6.6727024688992892e-03  -1.0077717639293038e+01 -1.2814979528247733e-02 -5.9895602665546123e-03  -1.0077473152337584e+01 -1.1712097180634916e-02 -5.6507591895402958e-03  -1.0089247075865210e+01 -1.2421490479465490e-02 -6.0900309806784167e-03  -1.0025766076220831e+01 -4.8540456729745515e-03 -4.1259538195549611e-03  -1.0007020071777790e+01 -1.7175259548360962e-03 -4.0445562270880423e-03  -1.0012592608047150e+01 -1.8356834558175376e-03 -3.8361879444800419e-03  -1.0021848554651156e+01 -4.5234005313252576e-03 -4.2156279508093891e-03  -1.0001896463656671e+01 -1.5873380362895339e-03 -4.1361432296292558e-03  -1.0018228793842631e+01 -4.1613033589174200e-03 -4.1977495076132637e-03  -9.9972354187603347e+00 -1.4508664350862995e-03 -4.1216203194900580e-03  -1.0014928188857654e+01 -3.7816419285009581e-03 -4.0842799840664539e-03  -9.9930371636396096e+00 -1.3117706314043356e-03 -4.0126489007086567e-03  -1.0011956417650053e+01 -3.3935138125465291e-03 -3.8873603469704644e-03  -9.9892941522544714e+00 -1.1723671713763013e-03 -3.8211214031616814e-03  -1.0009315820832231e+01 -3.0028105378249004e-03 -3.6187888511711778e-03  -9.9859946387239020e+00 -1.0340762751623463e-03 -3.5586318521874634e-03  -1.0007004312551439e+01 -2.6132143745926911e-03 -3.2896859177964171e-03  -9.9831249897417784e+00 -8.9770444896940260e-04 -3.2361348299782692e-03  -1.0005017342270316e+01 -2.2268550691749512e-03 -2.9103084228178978e-03  -9.9806712056951508e+00 -7.6362920250078029e-04 -2.8637544863728843e-03  -1.0003349233266063e+01 -1.8447567174101531e-03 -2.4899795983115225e-03  -9.9786199303717602e+00 -6.3192416997886894e-04 -2.4507095185126440e-03  -1.0001994103507840e+01 -1.4671507830465713e-03 -2.0371057315386638e-03  -9.9769591247992917e+00 -5.0244622566269050e-04 -2.0053252208143829e-03  -1.0000946501195132e+01 -1.0937016605717209e-03 -1.5592561516809139e-03  -9.9756785173319713e+00 -3.7489778135418330e-04 -1.5351090767665189e-03  -1.0000201841376487e+01 -7.2367423613212958e-04 -1.0632879897681693e-03  -9.9747699026545948e+00 -2.4887262441171436e-04 -1.0468713704406215e-03  -9.9997567002743164e+00 -3.5606299073480662e-04 -5.5550154209926697e-04  -9.9742273369906869e+00 -1.2389082388801725e-04 -5.4687661936791217e-04  -9.9996090040151824e+00 1.0303748176507247e-05 -4.1815559889974544e-05  -9.9740472599717567e+00 5.7345486972389360e-07 -4.1015116459103733e-05  -9.9997581345728719e+00 3.7667435375629327e-04 4.7204559780580072e-04  -9.9742285619815476e+00 1.2506841319835009e-04 4.6501354263979032e-04  -9.9753019248344845e+00 2.4162312140756686e-04 1.1005788657255352e-03  -1.0000227121683228e+01 7.1964179610303292e-04 1.1176414804763323e-03  -1.0000204965378286e+01 7.4429117676537925e-04 9.8035929685925190e-04  -9.9747726072184388e+00 2.5014310856872365e-04 9.6551136640779381e-04  -9.9761973917301834e+00 3.6357209684450339e-04 1.6538030441914826e-03  -9.9756832158265212e+00 3.7632599438874479e-04 1.4545928812638501e-03  -1.0000951830634193e+01 1.1143073668418945e-03 1.4772119462883935e-03  -9.9769666019665770e+00 5.0410153354740240e-04 1.9260016272025474e-03  -1.0002002424501928e+01 1.4876959902648641e-03 1.9563117981712093e-03  -1.0039284299979114e+01 -8.9658887912554899e-03 -4.4165882899627187e-03  -1.0036663868896722e+01 -8.3046424227460249e-03 -4.3892763312956785e-03  -1.0034235936387983e+01 -7.5894263896177849e-03 -4.2635716471107945e-03  -1.0032021733830003e+01 -6.8428050742865695e-03 -4.0523055137215392e-03  -1.0030033829251549e+01 -6.0799091901732943e-03 -3.7678275794169919e-03  -1.0028278999488236e+01 -5.3106870242571914e-03 -3.4216920465144516e-03  -1.0026760244424143e+01 -4.5414107675088005e-03 -3.0244906395028659e-03  -1.0025478210772437e+01 -3.7757129369632107e-03 -2.5857992784040244e-03  -1.0024432202268189e+01 -3.0153196291533815e-03 -2.1142099145883028e-03  -1.0023620896596229e+01 -2.2605835265364299e-03 -1.6174241851614065e-03  -1.0023042850421447e+01 -1.5108830389926264e-03 -1.1023905309822846e-03  -1.0022696847270730e+01 -7.6493207148073752e-04 -5.7547080803280193e-04  -1.0022582124487849e+01 -2.1031610808482510e-05 -4.2625952234532558e-05  -1.0022698502095871e+01 7.2271369489712361e-04 4.9038710006783358e-04  -1.0023046426176839e+01 1.4681953580913917e-03 1.0178132947492747e-03  -1.0023626930884749e+01 2.2171007387061709e-03 1.5336973527066719e-03  -1.0052847684729636e+01 -1.0928782737570543e-02 -4.6727997042411273e-03  -1.0051240381107752e+01 -1.0045008772989942e-02 -4.5294039794536991e-03  -1.0049747617178728e+01 -9.0990101707006527e-03 -4.2971725488421039e-03  -1.0048387617293447e+01 -8.1150107926083234e-03 -3.9893044145939615e-03  -1.0047172746219731e+01 -7.1096237503856354e-03 -3.6180231125557153e-03  -1.0046111183136819e+01 -6.0939565039470327e-03 -3.1944379052643006e-03  -1.0045208170279571e+01 -5.0751006931008275e-03 -2.7285159890079128e-03  -1.0044466937752395e+01 -4.0572103715937743e-03 -2.2291374726571508e-03  -1.0042942294482604e+01 -2.9395218642639122e-03 -1.9201733841270703e-03  -1.0043889383569754e+01 -3.0423010703351534e-03 -1.7042099732295795e-03  -1.0042526999562503e+01 -1.9617927948742120e-03 -1.3041341291328437e-03  -1.0043476566849575e+01 -2.0308585210498413e-03 -1.1608247071894244e-03  -1.0043229055615695e+01 -1.0223183697062959e-03 -6.0544039022619180e-04  -1.0043147157811848e+01 -1.5460987407320324e-05 -4.4084871120588235e-05  -1.0043231054102831e+01 9.9124516562842566e-04 5.1743289572088360e-04  -1.0067059771296121e+01 -1.2952779461071193e-02 -5.0258470648827059e-03  -1.0066202782854706e+01 -1.1972923464848365e-02 -4.8611602698419168e-03  -1.0065379009504678e+01 -1.0896375709751724e-02 -4.6033242345549777e-03  -1.0064607926533769e+01 -9.7560128518808537e-03 -4.2666291264677383e-03  -1.0063904175919367e+01 -8.5751722722531183e-03 -3.8641647853087007e-03  -1.0063278630183907e+01 -7.3701221982044622e-03 -3.4077154643362114e-03  -1.0062739262450524e+01 -6.1518758983436202e-03 -2.9077631471646145e-03  -1.0060905413992341e+01 -4.7623994648243791e-03 -2.6824162560278599e-03  -1.0062291838666981e+01 -4.9275430467000071e-03 -2.3735712110549596e-03  -1.0060543067172283e+01 -3.5766810799094982e-03 -2.0454994345306238e-03  -1.0061940454939707e+01 -3.7013560546369285e-03 -1.8133253053672102e-03  -1.0061687943934547e+01 -2.4754684842789869e-03 -1.2343134778414562e-03  -1.0061536170879494e+01 -1.2505956516440215e-03 -6.4313214483858853e-04  -1.0079360683286280e+01 -1.3238986087967707e-02 -5.2403322963181925e-03  -1.0079143023301569e+01 -1.2103812881150837e-02 -4.9539648128067819e-03  -1.0077213372561712e+01 -1.0523376830234648e-02 -5.2199768427782824e-03  -1.0078912009110891e+01 -1.0878501656001925e-02 -4.5848185866391592e-03  -1.0076953764291479e+01 -9.2767628490907205e-03 -4.7134659344752611e-03  -1.0078681636659729e+01 -9.5921481206276294e-03 -4.1470017952962290e-03  -1.0076706981090773e+01 -7.9923534444309493e-03 -4.1455408850956041e-03  -1.0078463168871744e+01 -8.2657492952741447e-03 -3.6531002717826249e-03  -1.0078265517344178e+01 -6.9141467125061248e-03 -3.1142143077517309e-03  -1.0077958701792175e+01 -4.1725932501891745e-03 -1.9392095651319099e-03  -1.0078095608281856e+01 -5.5475264173603005e-03 -2.5400739764964426e-03  -1.0077858654010686e+01 -2.7935080408657011e-03 -1.3191591146177511e-03  -1.0091245686018970e+01 -1.2837986172263552e-02 -5.3339236900120336e-03  -1.0091500294119397e+01 -1.1581048370099670e-02 -4.9302446457370050e-03  -1.0091699932822451e+01 -1.0243350069636751e-02 -4.4545305238334965e-03  -1.0091854346213371e+01 -8.8497792227809589e-03 -3.9202620977779566e-03  -1.0091971827479091e+01 -7.4185456641600242e-03 -3.3392385108844346e-03  -1.0102554629026574e+01 -1.1903557110073605e-02 -5.2908247804839149e-03  -1.0026151276011804e+01 -4.9710686059707392e-03 -3.4914321486407109e-03  -1.0007160422940107e+01 -1.7584022739852404e-03 -3.4239695968980911e-03  -1.0012844914578777e+01 -1.8773151399216481e-03 -3.2415978759086209e-03  -1.0022156801425963e+01 -4.6364986953694679e-03 -3.5738639932113977e-03  -1.0001933599464428e+01 -1.6266466881687351e-03 -3.5077886870387371e-03  -1.0018468213262464e+01 -4.2685465661173082e-03 -3.5649679752964053e-03  -9.9971794988605858e+00 -1.4879921115753291e-03 -3.5015030601191041e-03  -1.0015107420469640e+01 -3.8815805687831420e-03 -3.4744052416119530e-03  -9.9928989537110233e+00 -1.3462552419883753e-03 -3.4145332489245121e-03  -1.0012084066145819e+01 -3.4850808751342760e-03 -3.3121334373401763e-03  -9.9890844324290384e+00 -1.2038773647860769e-03 -3.2566348355763911e-03  -1.0009400083012107e+01 -3.0852401427258658e-03 -3.0879535071791182e-03  -9.9857237984715290e+00 -1.0623763605923688e-03 -3.0374402082411840e-03  -1.0007052748192928e+01 -2.6859735481567395e-03 -2.8112067326972775e-03  -9.9828027757503079e+00 -9.2263374345896763e-04 -2.7661515625676866e-03  -1.0005036758947663e+01 -2.2895869066363842e-03 -2.4905953006559099e-03  -9.9803065914363263e+00 -7.8508317461491444e-04 -2.4513578413442125e-03  -1.0003345658688339e+01 -1.8972335711683842e-03 -2.1341012582823901e-03  -9.9782210796501385e+00 -6.4983892675579929e-04 -2.1009502049702884e-03  -1.0001972823074576e+01 -1.5092363557409985e-03 -1.7489814765872936e-03  -9.9765334258318994e+00 -5.1678597070694101e-04 -1.7221135834914073e-03  -1.0000912142728067e+01 -1.1253210287589242e-03 -1.3418196119975032e-03  -9.9752326682580890e+00 -3.8564490996361236e-04 -1.3213752989108846e-03  -1.0000158492887683e+01 -7.4479096065441426e-04 -9.1861952113750150e-04  -9.9743100333803785e+00 -2.5602017034002310e-04 -9.0469522750921487e-04  -9.9997080499579454e+00 -3.6666261364301853e-04 -4.8492776843196407e-04  -9.9737591557030907e+00 -1.2743702329128269e-04 -4.7758514391597889e-04  -9.9995584942580571e+00 1.0224362456440625e-05 -4.5975551360633086e-05  -9.9735762153527876e+00 6.2866923255744360e-07 -4.5247565064341091e-05  -9.9997091236449851e+00 3.8711220333025568e-04 3.9316757128533906e-04  -9.9