<?xml version="1.0"?>
<VTKFile type="UnstructuredGrid"  version="0.1"  >
<UnstructuredGrid>
<Piece  NumberOfPoints="7447" NumberOfCells="37513">
<Points>
<DataArray  type="Float64"  NumberOfComponents="3"  format="ascii">0.125 0.225 0  0.125 0.25 0  0.15 0.25 0  0.15 0.25 0.025  0.15 0.275 0  0.15 0.275 0.025  0.125 0.275 0  0.175 0.275 0  0.175 0.275 0.025  0.15 0.3 0  0.15 0.3 0.025  0.125 0.3 0  0.175 0.3 0  0.175 0.3 0.025  0.2 0.3 0  0.2 0.3 0.025  0.1 0.3 0  0.125 0.325 0  0.125 0.325 0.025  0.125 0.3 0.025  0.1 0.325 0  0.15 0.325 0  0.15 0.325 0.025  0.175 0.325 0  0.175 0.325 0.025  0.2 0.325 0  0.2 0.325 0.025  0.225 0.325 0  0.225 0.325 0.025  0.125 0.35 0  0.125 0.35 0.025  0.1 0.35 0  0.15 0.35 0  0.15 0.35 0.025  0.175 0.35 0  0.175 0.35 0.025  0.2 0.35 0  0.2 0.35 0.025  0.225 0.35 0  0.225 0.35 0.025  0.25 0.35 0  0.25 0.35 0.025  0.125 0.375 0  0.125 0.375 0.025  0.1 0.375 0  0.15 0.375 0  0.15 0.375 0.025  0.175 0.375 0  0.175 0.375 0.025  0.2 0.375 0  0.2 0.375 0.025  0.225 0.375 0  0.225 0.375 0.025  0.25 0.375 0  0.25 0.375 0.025  0.275 0.375 0  0.275 0.375 0.025  0.125 0.4 0  0.125 0.4 0.025  0.1 0.4 0  0.1 0.4 0.025  0.15 0.4 0  0.15 0.4 0.025  0.175 0.4 0  0.175 0.4 0.025  0.2 0.4 0  0.2 0.4 0.025  0.225 0.4 0  0.225 0.4 0.025  0.25 0.4 0  0.25 0.4 0.025  0.275 0.4 0  0.275 0.4 0.025  0.3 0.375 0  0.3 0.4 0  0.3 0.4 0.025  0.325 0.4 0  0.325 0.4 0.025  0.075 0.4 0  0.1 0.425 0  0.1 0.425 0.025  0.075 0.425 0  0.125 0.425 0  0.125 0.425 0.025  0.15 0.425 0  0.15 0.425 0.025  0.175 0.425 0  0.175 0.425 0.025  0.2 0.425 0  0.2 0.425 0.025  0.225 0.425 0  0.225 0.425 0.025  0.25 0.425 0  0.25 0.425 0.025  0.275 0.425 0  0.275 0.425 0.025  0.3 0.425 0  0.3 0.425 0.025  0.325 0.425 0  0.325 0.425 0.025  0.35 0.425 0  0.35 0.425 0.025  0.1 0.45 0  0.1 0.45 0.025  0.075 0.45 0  0.125 0.45 0  0.125 0.45 0.025  0.15 0.45 0  0.15 0.45 0.025  0.175 0.45 0  0.175 0.45 0.025  0.2 0.45 0  0.2 0.45 0.025  0.225 0.45 0  0.225 0.45 0.025  0.25 0.45 0  0.25 0.45 0.025  0.275 0.45 0  0.275 0.45 0.025  0.3 0.45 0  0.3 0.45 0.025  0.325 0.45 0  0.325 0.45 0.025  0.35 0.45 0  0.35 0.45 0.025  0.375 0.45 0  0.375 0.45 0.025  0.1 0.475 0  0.1 0.475 0.025  0.075 0.475 0  0.125 0.475 0  0.125 0.475 0.025  0.15 0.475 0  0.15 0.475 0.025  0.175 0.475 0  0.175 0.475 0.025  0.2 0.475 0  0.2 0.475 0.025  0.225 0.475 0  0.225 0.475 0.025  0.25 0.475 0  0.25 0.475 0.025  0.275 0.475 0  0.275 0.475 0.025  0.3 0.475 0  0.3 0.475 0.025  0.325 0.475 0  0.325 0.475 0.025  0.35 0.475 0  0.35 0.475 0.025  0.375 0.475 0  0.375 0.475 0.025  0.4 0.475 0  0.4 0.475 0.025  0.1 0.5 0  0.1 0.5 0.025  0.075 0.5 0  0.125 0.5 0  0.125 0.5 0.025  0.15 0.5 0  0.15 0.5 0.025  0.175 0.5 0  0.175 0.5 0.025  0.2 0.5 0  0.2 0.5 0.025  0.225 0.5 0  0.225 0.5 0.025  0.25 0.5 0  0.25 0.5 0.025  0.275 0.5 0  0.275 0.5 0.025  0.3 0.5 0  0.3 0.5 0.025  0.325 0.5 0  0.325 0.5 0.025  0.35 0.5 0  0.35 0.5 0.025  0.375 0.5 0  0.375 0.5 0.025  0.4 0.5 0  0.4 0.5 0.025  0.1 0.525 0  0.1 0.525 0.025  0.075 0.525 0  0.125 0.525 0  0.125 0.525 0.025  0.15 0.525 0  0.15 0.525 0.025  0.175 0.525 0  0.175 0.525 0.025  0.2 0.525 0  0.2 0.525 0.025  0.225 0.525 0  0.225 0.525 0.025  0.25 0.525 0  0.25 0.525 0.025  0.275 0.525 0  0.275 0.525 0.025  0.3 0.525 0  0.3 0.525 0.025  0.325 0.525 0  0.325 0.525 0.025  0.35 0.525 0  0.35 0.525 0.025  0.375 0.525 0  0.375 0.525 0.025  0.4 0.525 0  0.4 0.525 0.025  0.425 0.525 0  0.425 0.525 0.025  0.1 0.55 0  0.1 0.55 0.025  0.125 0.55 0  0.125 0.55 0.025  0.15 0.55 0  0.15 0.55 0.025  0.175 0.55 0  0.175 0.55 0.025  0.2 0.55 0  0.2 0.55 0.025  0.225 0.55 0  0.225 0.55 0.025  0.25 0.55 0  0.25 0.55 0.025  0.275 0.55 0  0.275 0.55 0.025  0.3 0.55 0  0.3 0.55 0.025  0.325 0.55 0  0.325 0.55 0.025  0.35 0.55 0  0.35 0.55 0.025  0.375 0.55 0  0.375 0.55 0.025  0.4 0.55 0  0.4 0.55 0.025  0.425 0.55 0  0.425 0.55 0.025  0.125 0.575 0  0.125 0.575 0.025  0.1 0.575 0  0.1 0.575 0.025  0.15 0.575 0  0.15 0.575 0.025  0.175 0.575 0  0.175 0.575 0.025  0.2 0.575 0  0.2 0.575 0.025  0.225 0.575 0  0.225 0.575 0.025  0.25 0.575 0  0.25 0.575 0.025  0.275 0.575 0  0.275 0.575 0.025  0.3 0.575 0  0.3 0.575 0.025  0.325 0.575 0  0.325 0.575 0.025  0.35 0.575 0  0.35 0.575 0.025  0.375 0.575 0  0.375 0.575 0.025  0.4 0.575 0  0.4 0.575 0.025  0.425 0.575 0  0.425 0.575 0.025  0.45 0.575 0  0.45 0.575 0.025  0.125 0.6 0  0.125 0.6 0.025  0.15 0.6 0  0.15 0.6 0.025  0.175 0.6 0  0.175 0.6 0.025  0.2 0.6 0  0.2 0.6 0.025  0.225 0.6 0  0.225 0.6 0.025  0.25 0.6 0  0.25 0.6 0.025  0.275 0.6 0  0.275 0.6 0.025  0.3 0.6 0  0.3 0.6 0.025  0.325 0.6 0  0.325 0.6 0.025  0.35 0.6 0  0.35 0.6 0.025  0.375 0.6 0  0.375 0.6 0.025  0.4 0.6 0  0.4 0.6 0.025  0.425 0.6 0  0.425 0.6 0.025  0.45 0.6 0  0.45 0.6 0.025  0.475 0.6 0  0.475 0.6 0.025  0.15 0.625 0  0.15 0.625 0.025  0.125 0.625 0  0.125 0.625 0.025  0.175 0.625 0  0.175 0.625 0.025  0.2 0.625 0  0.2 0.625 0.025  0.225 0.625 0  0.225 0.625 0.025  0.25 0.625 0  0.25 0.625 0.025  0.275 0.625 0  0.275 0.625 0.025  0.3 0.625 0  0.3 0.625 0.025  0.325 0.625 0  0.325 0.625 0.025  0.35 0.625 0  0.35 0.625 0.025  0.375 0.625 0  0.375 0.625 0.025  0.4 0.625 0  0.4 0.625 0.025  0.425 0.625 0  0.425 0.625 0.025  0.45 0.625 0  0.45 0.625 0.025  0.475 0.625 0  0.475 0.625 0.025  0.5 0.625 0  0.5 0.625 0.025  0.15 0.65 0  0.15 0.65 0.025  0.125 0.65 0  0.175 0.65 0  0.175 0.65 0.025  0.2 0.65 0  0.2 0.65 0.025  0.225 0.65 0  0.225 0.65 0.025  0.25 0.65 0  0.25 0.65 0.025  0.275 0.65 0  0.275 0.65 0.025  0.3 0.65 0  0.3 0.65 0.025  0.325 0.65 0  0.325 0.65 0.025  0.35 0.65 0  0.35 0.65 0.025  0.375 0.65 0  0.375 0.65 0.025  0.4 0.65 0  0.4 0.65 0.025  0.425 0.65 0  0.425 0.65 0.025  0.45 0.65 0  0.45 0.65 0.025  0.475 0.65 0  0.475 0.65 0.025  0.5 0.65 0  0.5 0.65 0.025  0.15 0.675 0  0.15 0.675 0.025  0.125 0.675 0  0.175 0.675 0  0.175 0.675 0.025  0.2 0.675 0  0.2 0.675 0.025  0.225 0.675 0  0.225 0.675 0.025  0.25 0.675 0  0.25 0.675 0.025  0.275 0.675 0  0.275 0.675 0.025  0.3 0.675 0  0.3 0.675 0.025  0.325 0.675 0  0.325 0.675 0.025  0.35 0.675 0  0.35 0.675 0.025  0.375 0.675 0  0.375 0.675 0.025  0.4 0.675 0  0.4 0.675 0.025  0.425 0.675 0  0.425 0.675 0.025  0.45 0.675 0  0.45 0.675 0.025  0.475 0.675 0  0.475 0.675 0.025  0.5 0.675 0  0.5 0.675 0.025  0.15 0.7 0  0.15 0.7 0.025  0.175 0.7 0  0.175 0.7 0.025  0.2 0.7 0  0.2 0.7 0.025  0.225 0.7 0  0.225 0.7 0.025  0.25 0.7 0  0.25 0.7 0.025  0.275 0.7 0  0.275 0.7 0.025  0.3 0.7 0  0.3 0.7 0.025  0.325 0.7 0  0.325 0.7 0.025  0.35 0.7 0  0.35 0.7 0.025  0.375 0.7 0  0.375 0.7 0.025  0.4 0.7 0  0.4 0.7 0.025  0.425 0.7 0  0.425 0.7 0.025  0.45 0.7 0  0.45 0.7 0.025  0.475 0.7 0  0.475 0.7 0.025  0.5 0.7 0  0.5 0.7 0.025  0.525 0.675 0  0.525 0.7 0  0.525 0.7 0.025  0.55 0.7 0  0.55 0.7 0.025  0.175 0.725 0  0.175 0.725 0.025  0.15 0.725 0  0.15 0.725 0.025  0.2 0.725 0  0.2 0.725 0.025  0.225 0.725 0  0.225 0.725 0.025  0.25 0.725 0  0.25 0.725 0.025  0.275 0.725 0  0.275 0.725 0.025  0.3 0.725 0  0.3 0.725 0.025  0.325 0.725 0  0.325 0.725 0.025  0.35 0.725 0  0.35 0.725 0.025  0.375 0.725 0  0.375 0.725 0.025  0.4 0.725 0  0.4 0.725 0.025  0.425 0.725 0  0.425 0.725 0.025  0.45 0.725 0  0.45 0.725 0.025  0.475 0.725 0  0.475 0.725 0.025  0.5 0.725 0  0.5 0.725 0.025  0.525 0.725 0  0.525 0.725 0.025  0.55 0.725 0  0.55 0.725 0.025  0.575 0.725 0  0.575 0.725 0.025  0.175 0.75 0  0.175 0.75 0.025  0.15 0.75 0  0.2 0.75 0  0.2 0.75 0.025  0.225 0.75 0  0.225 0.75 0.025  0.25 0.75 0  0.25 0.75 0.025  0.275 0.75 0  0.275 0.75 0.025  0.3 0.75 0  0.3 0.75 0.025  0.325 0.75 0  0.325 0.75 0.025  0.35 0.75 0  0.35 0.75 0.025  0.375 0.75 0  0.375 0.75 0.025  0.4 0.75 0  0.4 0.75 0.025  0.425 0.75 0  0.425 0.75 0.025  0.45 0.75 0  0.45 0.75 0.025  0.475 0.75 0  0.475 0.75 0.025  0.5 0.75 0  0.5 0.75 0.025  0.525 0.75 0  0.525 0.75 0.025  0.55 0.75 0  0.55 0.75 0.025  0.575 0.75 0  0.575 0.75 0.025  0.6 0.75 0.025  0.175 0.775 0  0.175 0.775 0.025  0.15 0.775 0  0.2 0.775 0  0.2 0.775 0.025  0.225 0.775 0  0.225 0.775 0.025  0.25 0.775 0  0.25 0.775 0.025  0.275 0.775 0  0.275 0.775 0.025  0.3 0.775 0  0.3 0.775 0.025  0.325 0.775 0  0.325 0.775 0.025  0.35 0.775 0  0.35 0.775 0.025  0.375 0.775 0  0.375 0.775 0.025  0.4 0.775 0  0.4 0.775 0.025  0.425 0.775 0  0.425 0.775 0.025  0.45 0.775 0  0.45 0.775 0.025  0.475 0.775 0  0.475 0.775 0.025  0.5 0.775 0  0.5 0.775 0.025  0.525 0.775 0  0.525 0.775 0.025  0.55 0.775 0  0.55 0.775 0.025  0.575 0.775 0  0.575 0.775 0.025  0.6 0.775 0.025  0.6 0.775 0  0.175 0.8 0  0.175 0.8 0.025  0.15 0.8 0  0.2 0.8 0  0.2 0.8 0.025  0.225 0.8 0  0.225 0.8 0.025  0.25 0.8 0  0.25 0.8 0.025  0.275 0.8 0  0.275 0.8 0.025  0.3 0.8 0  0.3 0.8 0.025  0.325 0.8 0  0.325 0.8 0.025  0.35 0.8 0  0.35 0.8 0.025  0.375 0.8 0  0.375 0.8 0.025  0.4 0.8 0  0.4 0.8 0.025  0.425 0.8 0  0.425 0.8 0.025  0.45 0.8 0  0.45 0.8 0.025  0.475 0.8 0  0.475 0.8 0.025  0.5 0.8 0  0.5 0.8 0.025  0.525 0.8 0  0.525 0.8 0.025  0.55 0.8 0  0.55 0.8 0.025  0.575 0.8 0  0.575 0.8 0.025  0.6 0.8 0  0.6 0.8 0.025  0.625 0.8 0  0.625 0.8 0.025  0.175 0.825 0  0.175 0.825 0.025  0.15 0.825 0  0.2 0.825 0  0.2 0.825 0.025  0.225 0.825 0  0.225 0.825 0.025  0.25 0.825 0  0.25 0.825 0.025  0.275 0.825 0  0.275 0.825 0.025  0.3 0.825 0  0.3 0.825 0.025  0.325 0.825 0  0.325 0.825 0.025  0.35 0.825 0  0.35 0.825 0.025  0.375 0.825 0  0.375 0.825 0.025  0.4 0.825 0  0.4 0.825 0.025  0.425 0.825 0  0.425 0.825 0.025  0.45 0.825 0  0.45 0.825 0.025  0.475 0.825 0  0.475 0.825 0.025  0.5 0.825 0  0.5 0.825 0.025  0.525 0.825 0  0.525 0.825 0.025  0.55 0.825 0  0.55 0.825 0.025  0.575 0.825 0  0.575 0.825 0.025  0.6 0.825 0  0.6 0.825 0.025  0.625 0.825 0  0.625 0.825 0.025  0.65 0.825 0  0.65 0.825 0.025  0.175 0.85 0  0.175 0.85 0.025  0.2 0.85 0  0.2 0.85 0.025  0.225 0.85 0  0.225 0.85 0.025  0.25 0.85 0  0.25 0.85 0.025  0.275 0.85 0  0.275 0.85 0.025  0.3 0.85 0  0.3 0.85 0.025  0.325 0.85 0  0.325 0.85 0.025  0.35 0.85 0  0.35 0.85 0.025  0.375 0.85 0  0.375 0.85 
[...]
<PointData  Vectors="f_123"> 
<DataArray  type="Float64"  Name="f_123"  NumberOfComponents="3" format="ascii">-1.0016096429928441e+01 -5.6339768403617990e-03 -1.5899059697831515e-03  -1.0016642007372711e+01 -5.3298027688539196e-03 -1.6782112043321566e-03  -1.0011330150962030e+01 -5.7682400585377406e-03 -1.5821912708253460e-03  -1.0027256925286011e+01 -5.9102307784403285e-03 -4.4145642825499107e-03  -1.0011667228708580e+01 -5.3772542430594039e-03 -1.6593127422995578e-03  -1.0028047430320994e+01 -5.5036478228855977e-03 -4.6320928340815009e-03  -1.0017175426786997e+01 -4.9494905470378533e-03 -1.7561181816478043e-03  -1.0006538885591510e+01 -5.6246647106486160e-03 -1.5456341319841002e-03  -1.0024192258988519e+01 -5.7491259113646304e-03 -4.3636550608112685e-03  -1.0011996250330162e+01 -4.9152427692911293e-03 -1.7270361405527230e-03  -1.0028758808598337e+01 -5.0262931128529972e-03 -4.8236676315862974e-03  -1.0017683082983842e+01 -4.5097011140489461e-03 -1.8241339134950053e-03  -1.0006703113103070e+01 -5.1573476296338594e-03 -1.6113833062931919e-03  -1.0024787411957513e+01 -5.2673119719972242e-03 -4.5508774412802112e-03  -1.0001834150483587e+01 -5.2498818753838189e-03 -1.4857515950783427e-03  -1.0021054469590270e+01 -5.3564034863633854e-03 -4.2317881781272475e-03  -1.0023697819819926e+01 -3.9308380083981371e-03 -1.8887342063320825e-03  -1.0018153664183751e+01 -4.0237793960482418e-03 -1.8827771025408937e-03  -1.0033652028443194e+01 -4.1177052041243313e-03 -5.1837673046167976e-03  -1.0032904750348100e+01 -4.6187985007738915e-03 -5.0189425032137157e-03  -1.0024333613973724e+01 -3.4978705498375081e-03 -1.9453845707219054e-03  -1.0012307455431145e+01 -4.3974239358904044e-03 -1.7857059445241658e-03  -1.0029390495919873e+01 -4.4934977941241509e-03 -4.9900181448019427e-03  -1.0006865737360057e+01 -4.6261026766847915e-03 -1.6686023933366869e-03  -1.0025311619692737e+01 -4.7216808331711838e-03 -4.7141747951148340e-03  -1.0001861895027844e+01 -4.7208587770062012e-03 -1.5404255320043529e-03  -1.0021481913836039e+01 -4.8138508820335007e-03 -4.3886083287099625e-03  -9.9973080994932797e+00 -4.6948474759701143e-03 -1.4066782634899906e-03  -1.0017940008065091e+01 -4.7836108206389264e-03 -4.0338341134650308e-03  -1.0018577925691513e+01 -3.5023888002640793e-03 -1.9325395040521354e-03  -1.0034305617817044e+01 -3.5817533569039669e-03 -5.3238945471109122e-03  -1.0024900827014504e+01 -3.0378762730056282e-03 -1.9932679105722590e-03  -1.0012592608047354e+01 -3.8361879444425762e-03 -1.8356834557865060e-03  -1.0029941436113646e+01 -3.9176931672722185e-03 -5.1319814003288689e-03  -1.0007020071777974e+01 -4.0445562268003558e-03 -1.7175259546925840e-03  -1.0025766076220927e+01 -4.1259538193853581e-03 -4.8540456730704245e-03  -1.0001896463656729e+01 -4.1361432294578868e-03 -1.5873380360656333e-03  -1.0021848554651243e+01 -4.2156279505638876e-03 -4.5234005315489666e-03  -9.9972354187602299e+00 -4.1216203193177765e-03 -1.4508664350869321e-03  -1.0018228793842654e+01 -4.1977495072804630e-03 -4.1613033592105267e-03  -9.9930371636396824e+00 -4.0126489004482782e-03 -1.3117706316872297e-03  -1.0014928188857647e+01 -4.0842799839122491e-03 -3.7816419287112287e-03  -1.0018948438941573e+01 -2.9540437752880607e-03 -1.9738643498325163e-03  -1.0034863021402359e+01 -3.0194013834785893e-03 -5.4404205276703020e-03  -1.0025391954675182e+01 -2.5575745678332032e-03 -2.0329094105429671e-03  -1.0012844914578828e+01 -3.2415978760121505e-03 -1.8773151398393272e-03  -1.0030410445832251e+01 -3.3089371972438112e-03 -5.2503988473442467e-03  -1.0007160422940188e+01 -3.4239695969586724e-03 -1.7584022738567860e-03  -1.0026151276011831e+01 -3.4914321485956319e-03 -4.9710686060751861e-03  -1.0001933599464781e+01 -3.5077886871184884e-03 -1.6266466879423427e-03  -1.0022156801426165e+01 -3.5738639932074868e-03 -4.6364986954618211e-03  -9.9971794988603264e+00 -3.5015030603272128e-03 -1.4879921118118810e-03  -1.0018468213262580e+01 -3.5649679754900672e-03 -4.2685465660765439e-03  -9.9928989537110553e+00 -3.4145332490591505e-03 -1.3462552424776076e-03  -1.0015107420469690e+01 -3.4744052417559059e-03 -3.8815805688074633e-03  -9.9890844324291468e+00 -3.2566348356758406e-03 -1.2038773651066356e-03  -1.0012084066145972e+01 -3.3121334373931487e-03 -3.4850808752597364e-03  -1.0019259350625699e+01 -2.3855555367231383e-03 -2.0071345769833841e-03  -1.0035322200384533e+01 -2.4373857345369671e-03 -5.5343118202200951e-03  -1.0025801200192840e+01 -2.0622567475256119e-03 -2.0647488414597820e-03  -1.0039923235997176e+01 -2.1105730547694339e-03 -5.5739135976415307e-03  -1.0013058905366281e+01 -2.6218354791652191e-03 -1.9109129538954430e-03  -1.0030796410037771e+01 -2.6753765932123193e-03 -5.3460504775220997e-03  -1.0007282089343828e+01 -2.7736489462878195e-03 -1.7914684952821487e-03  -1.0026467339189379e+01 -2.8274242662105226e-03 -5.0658229624552424e-03  -1.0001969664894151e+01 -2.8459160071646413e-03 -1.6585172102352771e-03  -1.0022408231876453e+01 -2.8987139782364305e-03 -4.7282889003896324e-03  -9.9971379622118626e+00 -2.8450909409759649e-03 -1.5181575415758252e-03  -1.0018661428260616e+01 -2.8959203862814792e-03 -4.3557775637532124e-03  -9.9927884281954977e+00 -2.7784977321804287e-03 -1.3743307704897740e-03  -1.0015249370485712e+01 -2.8265536859358102e-03 -3.9630383672576439e-03  -9.9889136533591714e+00 -2.6538195796597069e-03 -1.2295781003743289e-03  -1.0012181775579810e+01 -2.6984551892632130e-03 -3.5598579544008960e-03  -9.9857237984717369e+00 -3.0374402080025052e-03 -1.0623763608742912e-03  -9.9855012761292574e+00 -2.4787236058411645e-03 -1.0854966068004719e-03  -1.0009460328298358e+01 -2.5194255072228918e-03 -3.1526730301173942e-03  -9.9825365703689926e+00 -2.2606021015002999e-03 -9.4302948651634334e-04  -1.0007081851397837e+01 -2.2969685048498181e-03 -2.7455900309192264e-03  -1.0032533015391467e+01 -1.6528218260959866e-03 -2.0546127935588080e-03  -1.0026124189122820e+01 -1.5561146798837614e-03 -2.0891415565026500e-03  -1.0040340014934438e+01 -1.5921153528660871e-03 -5.6418664348591076e-03  -1.0032929255439612e+01 -1.2456394753424208e-03 -2.0767580026623835e-03  -1.0019506169407173e+01 -1.8024083739025551e-03 -2.0326666551226938e-03  -1.0035681564806739e+01 -1.8411050021025809e-03 -5.6063790759839117e-03  -1.0013230308897420e+01 -1.9835950101841728e-03 -1.9367421832230506e-03  -1.0031098378308497e+01 -2.0236511908262658e-03 -5.4196128368410226e-03  -1.0007381324586278e+01 -2.1013283405878934e-03 -1.8169341547688176e-03  -1.0026714207790141e+01 -2.1416408637412697e-03 -5.1388357357597635e-03  -1.0002001684265341e+01 -2.1590635552164892e-03 -1.6831044551899146e-03  -1.0022603872631917e+01 -2.1987208558932477e-03 -4.7991497995705772e-03  -9.9971087773464458e+00 -2.1614507284353122e-03 -1.5414677122425424e-03  -1.0018810672033478e+01 -2.1997012864793095e-03 -4.4232391348659117e-03  -9.9927046003425861e+00 -2.1138444358728119e-03 -1.3960594089807853e-03  -1.0015357531623055e+01 -2.1500728438711043e-03 -4.0261415678772092e-03  -9.9887819073022435e+00 -2.0219218324923943e-03 -1.2494969237442284e-03  -1.0012254290114466e+01 -2.0556292460912023e-03 -3.6178775043864526e-03  -9.9853282218560437e+00 -1.8913971301807420e-03 -1.1034382818006199e-03  -1.0009502494562151e+01 -1.9221840334517418e-03 -3.2050714869608513e-03  -9.9823285173060139e+00 -1.7278205523647131e-03 -9.5887466487602974e-04  -1.0007098658526425e+01 -1.7553712821496868e-03 -2.7919786755343985e-03  -9.9797670361055371e+00 -1.5364493378319727e-03 -8.1632363569368225e-04  -1.0005036504641801e+01 -1.5605181847901004e-03 -2.3811671629718370e-03  -1.0026357743947184e+01 -1.0425154885297502e-03 -2.1063604585086436e-03  -1.0040639376989503e+01 -1.0665417665560294e-03 -5.6897685628417814e-03  -1.0033214628643588e+01 -8.3349889713600601e-04 -2.0923805239962687e-03  -1.0019685588373212e+01 -1.2090826548276639e-03 -2.0507075399802612e-03  -1.0035939938770184e+01 -1.2349476061215589e-03 -5.6572621781269088e-03  -1.0013355935739920e+01 -1.3324330315765600e-03 -1.9550139895346068e-03  -1.0031315605399278e+01 -1.3592506940196809e-03 -5.4716324753846315e-03  -1.0007455286964609e+01 -1.4135243026047761e-03 -1.8349703531433913e-03  -1.0026891760951059e+01 -1.4405577910580885e-03 -5.1905460774869924e-03  -1.0002027354996965e+01 -1.4545273060264008e-03 -1.7005393717327150e-03  -1.0022744380770069e+01 -1.4811646227821081e-03 -4.8494114534966019e-03  -9.9970903220170388e+00 -1.4584319671686859e-03 -1.5580162208402334e-03  -1.0018917483843897e+01 -1.4841657547066658e-03 -4.4711592291939960e-03  -9.9926466163986145e+00 -1.4287244870616581e-03 -1.4115020402565286e-03  -1.0015434378862102e+01 -1.4531367412334250e-03 -4.0710285774011607e-03  -9.9886891471935488e+00 -1.3691335140659300e-03 -1.2636676284303215e-03  -1.0012305027332097e+01 -1.3918832403287840e-03 -3.6592040429333883e-03  -9.9852053901724123e+00 -1.2834380410331446e-03 -1.1162140547466828e-03  -1.0009530909395277e+01 -1.3042503199621356e-03 -3.2424429634116607e-03  -9.9821801324966337e+00 -1.1753300414849284e-03 -9.7016665729186477e-04  -1.0007108343488992e+01 -1.1939861511234037e-03 -2.8251064549924022e-03  -9.9795973467588190e+00 -1.0483244016479968e-03 -8.2606955428794033e-04  -1.0005030780737222e+01 -1.0646528753942945e-03 -2.4098456138516721e-03  -9.9774414805418612e+00 -9.0570847330823329e-04 -6.8411951799025883e-04  -1.0003290406021735e+01 -9.1957711047931340e-04 -1.9980746645141345e-03  -1.0026499714329594e+01 -5.2423804852278725e-04 -2.1165980457565113e-03  -1.0040820392919493e+01 -5.3652011491148080e-04 -5.7181194098420282e-03  -1.0033387248795535e+01 -4.1826457888644519e-04 -2.1016770464721002e-03  -1.0019795346522667e+01 -6.0933844230650160e-04 -2.0614333002741073e-03  -1.0036096519951872e+01 -6.2257823417447066e-04 -5.6874221196312885e-03  -1.0013433582020786e+01 -6.7308347786295103e-04 -1.9658809206098190e-03  -1.0031447562897577e+01 -6.8683443034581876e-04 -5.5025094894276235e-03  -1.0007501989577923e+01 -7.1586500188291764e-04 -1.8457027666717953e-03  -1.0026999880057396e+01 -7.2975126408577240e-04 -5.2212821685211370e-03  -1.0002045043194833e+01 -7.3868773860169274e-04 -1.7109202712599116e-03  -1.0022830158405824e+01 -7.5239598577871267e-04 -4.8793276105142183e-03  -9.9970814187662178e+00 -7.4297787195891655e-04 -1.5678755516241394e-03  -1.0018982865167743e+01 -7.5624729334656084e-04 -4.4997207580282986e-03  -9.9926138230571215e+00 -7.3042286137643946e-04 -1.4207081985116495e-03  -1.0015481557261225e+01 -7.4303752445771239e-04 -4.0978191507242568e-03  -9.9886352769753248e+00 -7.0284466465640651e-04 -1.2721204450110062e-03  -1.0012336287482260e+01 -7.1462752285178835e-04 -3.6839042521719621e-03  -9.9851332445637304e+00 -6.6210279109177816e-04 -1.1238388169393322e-03  -1.0009548511450303e+01 -6.7291033859445356e-04 -3.2648122241830855e-03  -9.9820924156531010e+00 -6.1002403902754110e-04 -9.7690896615475892e-04  -1.0007114443503983e+01 -6.1974146739481365e-04 -2.8449674455396290e-03  -9.9794966123439561e+00 -5.4835552911010289e-04 -8.3189090234396241e-04  -1.0005027381962885e+01 -5.5689231297703266e-04 -2.4270708981605836e-03  -9.9773301054482921e+00 -4.7873744243969954e-04 -6.8899353298057455e-04  -1.0003279335706907e+01 -4.8602336910714576e-04 -2.0125753077585209e-03  -9.9755785255305618e+00 -4.0269192770402720e-04 -5.4817032508360712e-04  -1.0001862166567536e+01 -4.0867360556034408e-04 -1.6020237901494968e-03  -1.0026548859188663e+01 -3.6835309107555247e-06 -2.1199680557758547e-03  -1.0040882532947375e+01 -4.3416875728105179e-06 -5.7272172935990632e-03  -1.0033446033934961e+01 -1.5205389920823423e-06 -2.1047633156215115e-03  -1.0019834130238223e+01 -6.4715435695409167e-06 -2.0649485623930298e-03  -1.0036150844836284e+01 -7.1956285150593223e-06 -5.6971368422170116e-03  -1.0013461957914291e+01 -9.7473344294947343e-06 -1.9694342938489690e-03  -1.0031493938370973e+01 -1.0524340713742155e-05 -5.5124878148254874e-03  -1.0007520259707801e+01 -1.3399524804981665e-05 -1.8492073245508418e-03  -1.0027038483612280e+01 -1.4211662965876829e-05 -5.2312469184152581e-03  -1.0002053774043739e+01 -1.7324472246001048e-05 -1.7143072660362757e-03  -1.0022861421517057e+01 -1.8156326782125059e-05 -4.8890580861727781e-03  -9.9970813534253367e+00 -2.1432505377911067e-05 -1.5710907611082177e-03  -1.0019007377985810e+01 -2.2270723410835228e-05 -4.5090420025715649e-03  -9.9926058091839582e+00 -2.5647685808270291e-05 -1.4237094464717777e-03  -1.0015500003600755e+01 -2.6480515036668896e-05 -4.1065940803967403e-03  -9.9886202107720035e+00 -2.9907292629801782e-05 -1.2748754822323870e-03  -1.0012349391828218e+01 -3.0724519329460559e-05 -3.6920270026806097e-03  -9.9851120283419323e+00 -3.4160634257467820e-05 -1.1263234796874198e-03  -1.0009556999166236e+01 -3.4953473331595648e-05 -3.2722025285083661e-03  -9.9820659277099573e+00 -3.8367373154084645e-05 -9.7910557878621587e-04  -1.0007119012809508e+01 -3.9128367374817967e-05 -2.8515657519897664e-03  -9.9794656874815555e+00 -4.2495584097067702e-05 -8.3378689236803080e-04  -1.0005028686037077e+01 -4.3218495848010172e-05 -2.4328341328967796e-03  -9.9772955244261823e+00 -4.6519695774801461e-05 -6.9058024989081994e-04  -1.0003277973277315e+01 -4.7199388571749077e-05 -2.0174732355440462e-03  -9.9755410117912522e+00 -5.0418427896685543e-05 -5.4944205212776231e-04  -1.0001858679372383e+01 -5.1050740718683703e-05 -1.6060359426207404e-03  -1.0026504777671892e+01 5.1693008176772158e-04 -2.1165064594740953e-03  -1.0040825628493582e+01 5.2788457659377333e-04 -5.7171608807701675e-03  -1.0033390632736628e+01 4.1528522595457086e-04 -2.1016762204057234e-03  -1.0019801514723921e+01 5.9644779468081069e-04 -2.0612862798874598e-03  -1.0036102766038429e+01 6.0822758395725281e-04 -5.6864994420487164e-03  -1.0013440644031453e+01 6.5363412726764309e-04 -1.9657028028618826e-03  -1.0031454631657702e+01 6.6581926977282225e-04 -5.5016502734714194e-03  -1.0007509712661571e+01 6.8910633246819142e-04 -1.8455078375376349e-03  -1.0027007543856817e+01 7.0135702657497551e-04 -5.2205103238645708e-03  -1.0002053223533126e+01 7.0407813015424970e-04 -1.7107191700725742e-03  -1.0022838236262594e+01 7.1611224183167294e-04 -4.8786591143648948e-03  -9.9970898833874564e+00 7.0015591364988236e-04 -1.5676759162372286e-03  -1.0018991198558764e+01 7.1173958813737688e-04 -4.4991657026462826e-03  -9.9926224280880245e+00 6.7917918744823242e-04 -1.4205156059801220e-03  -1.0015490014347668e+01 6.9012014405406155e-04 -4.0973837347539985e-03  -9.9886439059843486e+00 6.4309499260630312e-04 -1.2719389661743714e-03  -1.0012344761095367e+01 6.5323666972441044e-04 -3.6835919586311024e-03  -9.9851418052910166e+00 5.9386350285528088e-04 -1.1236713927241964e-03  -1.0009556916082536e+01 6.0307994924654266e-04 -3.2646247958489460e-03  -9.9821008360374393e+00 5.3339125337395184e-04 -9.7675769323278820e-04  -1.0007122711668174e+01 5.4158250164297898e-04 -2.8449055985813577e-03  -9.9795048361887897e+00 4.6348816633389053e-04 -8.3175725665440587e-04  -1.0005035460170079e+01 4.7057605379654198e-04 -2.4271348389711830e-03  -9.9773380880068387e+00 3.8584448210362974e-04 -6.8887855057461886e-04  -1.0003287180362252e+01 3.9176893304286261e-04 -2.0127650939034923e-03  -9.9755862292101707e+00 3.0202383922088089e-04 -5.4807475011168204e-04  -1.0001869739961567e+01 3.0673963800600409e-04 -1.6023395634548626e-03  -9.9742368814290998e+00 2.1346905184822175e-04 -4.0911379335634938e-04  -1.0000775656650736e+01 2.1694313497143224e-04 -1.1957408914022184e-03  -1.0026367887246092e+01 1.0353809940004629e-03 -2.1061716834516607e-03  -1.0040649860066111e+01 1.0580455443789968e-03 -5.6878499629727563e-03  -1.0019697945169238e+01 1.1963444184181350e-03 -2.0504075758738254e-03  -1.0035952444938458e+01 1.2207135430035462e-03 -5.6554179331473999e-03  -1.0013370077073034e+01 1.3131140212621498e-03 -1.9546520024914574e-03  -1.0031329753332594e+01 1.3383302493867192e-03 -5.4699173161212450e-03  -1.0007470742777926e+01 1.3868808911309542e-03 -1.8345751823779241e-03  -1.0026907091576673e+01 1.4122448144126278e-03 -5.1890073155967170e-03  -1.0002043715053031e+01 1.4200299658033045e-03 -1.7001324584444682e-03  -1.0022760530028762e+01 1.4449618594680803e-03 -4.8480804937648340e-03  -9.9971072394783764e+00 1.4157339045004023e-03 -1.5576129168920001e-03  -1.0018934134097309e+01 1.4397541079880607e-03 -4.4700557336865314e-03  -9.9926638039453177e+00 1.3776313650745442e-03 -1.4111135184167554e-03  -1.0015451266979156e+01 1.4003459513025037e-03 -4.0701644937047683e-03  -9.9887063733139634e+00 1.3095749158491786e-03 -1.2633020100159746e-03  -1.0012321940312429e+01 1.3306635267604115e-03 -3.6585859779874842e-03  -9.9852224722708218e+00 1.2154419854069789e-03 -1.1158771759097335e-03  -1.0009547678049751e+01 1.2346471836269400e-03 -3.2420741368056603e-03  -9.9821969286698700e+00 1.0990014213198437e-03 -9.6986265340360004e-04  -1.0007124834919898e+01 1.1161190850129533e-03 -2.8249881207338262e-03  -9.9796137469295250e+00 9.6382773899020106e-04 -8.2580131344478502e-04  -1.0005046890126227e+01 9.7869840714551182e-04 -2.4099780846366290e-03  -9.9774573975027963e+00 8.1325509122912119e-04 -6.8388904829512433e-04  -1.0003306048318215e+01 8.2575627621744917e-04 -1.9984580206026683e-03  -9.9757137066071149e+00 6.5036333036401310e-04 -5.4406974194803513e-04  -1.0001894361811662e+01 6.6040284797868828e-04 -1.5909422839902394e-03  -9.9743704681242029e+00 4.7798921397061397e-04 -4.0610470843744430e-04  -1.0000804516036112e+01 4.8549958335232003e-04 -1.1872925472778554e-03  -1.0019524757533830e+01 1.7899073721619398e-03 -2.0322015690664419e-03  -1.0035700360603629e+01 1.8270473816108393e-03 -5.6036163461331921e-03  -1.0026139448352342e+01 1.5492562217746661e-03 -2.0888440109924776e-03  -1.0040355771713337e+01 1.5838369502203522e-03 -5.6389854371005303e-03  -1.0013251565122447e+01 1.9644741004169819e-03 -1.9361845534378074e-03  -1.0031119626887573e+01 2.0028687116763798e-03 -5.4170491525619962e-03  -1.0007404532384001e+01 2.0748570439010081e-03 -1.8163279131320688e-03  -1.0026737211084576e+01 2.1134429574551712e-03 -5.1365407277971743e-03  -1.0002026221933539e+01 2.1247338833364558e-03 -1.6824821640664264e-03  -1.0022628079465271e+01 2.1626336193752253e-03 -4.7971691544249967e-03  -9.9971341226141455e+00 2.1189413679002134e-03 -1.5408525823100568e-03  -1.0018835604667620e+01 2.1554323050274648e-03 -4.4216010151856772e-03  -9.9927303235208385e+00 2.0629868956278355e-03 -1.3954682360728613e-03  -1.0015382796917750e+01 2.0974783521886505e-03 -4.0248627653006143e-03  -9.9888076646899648e+00 1.9626693024419554e-03 -1.2489418279324205e-03  -1.0012279572069728e+01 1.9946832468738141e-03 -3.6169670368190764e-03  -9.9853537445040015e+00 1.8237972848240865e-03 -1.1029278962940568e-03  -1.0009527544065334e+01 1.8529514827438445e-03 -3.2045335331537680e-03  -9.9823535979869398e+00 1.6519930086500607e-03 -9.5841503903596587e-04  -1.0007123281480098e+01 1.6779859192293017e-03 -2.7918146888227654e-03  -9.9797915155233650e+00 1.4525679701268750e-03 -8.1591893700092271e-04  -1.0005060549236301e+01 1.4751652285062550e-03 -2.3813773776488623e-03  -9.9776522877437248e+00 1.2304583748933831e-03 -6.7561491656935313e-04  -1.0003331867343242e+01 1.2494808608408442e-03 -1.9745720602812244e-03  -9.9759220599748470e+00 9.9020809943064668e-04 -5.3743179215037806e-04  -1.0001929599847156e+01 1.0055216418434596e-03 -1.5718659128053599e-03  -9.9745889170710988e+00 7.3598856693174691e-04 -4.0112025173652007e-04  -1.0000846714885967e+01 7.4749533522327865e-04 -1.1730866191205947e-03  -9.9736432798162973e+00 4.7164636662966894e-04 -2.6630422399681239e-04  -1.0000077310636398e+01 4.7927798420400574e-04 -7.7760650374575845e-04  -1.0019284239077638e+01 2.3733499109150056e-03 -2.0064852419397631e-03  -1.0035347334015569e+01 2.4235360764483511e-03 -5.5306374595003420e-03  -1.0013087332114882e+01 2.6029502406375200e-03 -1.9101413278227515e-03  -1.0030824792997407e+01 2.6547440335606570e-03 -5.3426516324746043e-03  -1.0007313077765289e+01 2.7473753073719784e-03 -1.7906344178136703e-03  -1.0026498023253401e+01 2.7993434469629703e-03 -5.062