<?xml version="1.0"?>
<VTKFile type="UnstructuredGrid"  version="0.1"  >
<UnstructuredGrid>
<Piece  NumberOfPoints="7537" NumberOfCells="38188">
<Points>
<DataArray  type="Float64"  NumberOfComponents="3"  format="ascii">0.65 0.375 0  0.675 0.375 0  0.675 0.4 0  0.675 0.4 0.025  0.65 0.4 0  0.7 0.4 0  0.7 0.4 0.025  0.725 0.375 0  0.75 0.375 0  0.75 0.4 0  0.75 0.4 0.025  0.725 0.4 0  0.775 0.375 0  0.775 0.4 0  0.775 0.4 0.025  0.8 0.4 0  0.8 0.4 0.025  0.6 0.4 0  0.625 0.4 0  0.625 0.425 0  0.625 0.425 0.025  0.6 0.425 0  0.65 0.425 0  0.65 0.425 0.025  0.675 0.425 0  0.675 0.425 0.025  0.7 0.425 0  0.7 0.425 0.025  0.725 0.425 0  0.725 0.425 0.025  0.75 0.425 0  0.75 0.425 0.025  0.775 0.425 0  0.775 0.425 0.025  0.8 0.425 0  0.8 0.425 0.025  0.825 0.4 0  0.825 0.425 0  0.825 0.425 0.025  0.85 0.4 0  0.85 0.425 0  0.85 0.425 0.025  0.875 0.4 0  0.875 0.425 0  0.875 0.425 0.025  0.9 0.4 0  0.9 0.425 0  0.9 0.425 0.025  0.925 0.425 0  0.925 0.425 0.025  0.525 0.425 0  0.55 0.425 0  0.55 0.45 0  0.55 0.45 0.025  0.525 0.45 0  0.575 0.425 0  0.575 0.45 0  0.575 0.45 0.025  0.6 0.45 0  0.6 0.45 0.025  0.625 0.45 0  0.625 0.45 0.025  0.65 0.45 0  0.65 0.45 0.025  0.675 0.45 0  0.675 0.45 0.025  0.7 0.45 0  0.7 0.45 0.025  0.725 0.45 0  0.725 0.45 0.025  0.75 0.45 0  0.75 0.45 0.025  0.775 0.45 0  0.775 0.45 0.025  0.8 0.45 0  0.8 0.45 0.025  0.825 0.45 0  0.825 0.45 0.025  0.85 0.45 0  0.85 0.45 0.025  0.875 0.45 0  0.875 0.45 0.025  0.9 0.45 0  0.9 0.45 0.025  0.925 0.45 0  0.925 0.45 0.025  0.95 0.45 0  0.95 0.45 0.025  0.475 0.45 0  0.5 0.45 0  0.5 0.475 0  0.5 0.475 0.025  0.475 0.475 0  0.525 0.475 0  0.525 0.475 0.025  0.55 0.475 0  0.55 0.475 0.025  0.575 0.475 0  0.575 0.475 0.025  0.6 0.475 0  0.6 0.475 0.025  0.625 0.475 0  0.625 0.475 0.025  0.65 0.475 0  0.65 0.475 0.025  0.675 0.475 0  0.675 0.475 0.025  0.7 0.475 0  0.7 0.475 0.025  0.725 0.475 0  0.725 0.475 0.025  0.75 0.475 0  0.75 0.475 0.025  0.775 0.475 0  0.775 0.475 0.025  0.8 0.475 0  0.8 0.475 0.025  0.825 0.475 0  0.825 0.475 0.025  0.85 0.475 0  0.85 0.475 0.025  0.875 0.475 0  0.875 0.475 0.025  0.9 0.475 0  0.9 0.475 0.025  0.925 0.475 0  0.925 0.475 0.025  0.95 0.475 0  0.95 0.475 0.025  0.975 0.45 0  0.975 0.475 0  0.975 0.475 0.025  0.975 0.45 0.025  1 0.45 0  1 0.475 0  1 0.475 0.025  0.425 0.475 0  0.45 0.475 0  0.45 0.5 0  0.45 0.5 0.025  0.425 0.5 0  0.475 0.5 0  0.475 0.5 0.025  0.5 0.5 0  0.5 0.5 0.025  0.525 0.5 0  0.525 0.5 0.025  0.55 0.5 0  0.55 0.5 0.025  0.575 0.5 0  0.575 0.5 0.025  0.6 0.5 0  0.6 0.5 0.025  0.625 0.5 0  0.625 0.5 0.025  0.65 0.5 0  0.65 0.5 0.025  0.675 0.5 0  0.675 0.5 0.025  0.7 0.5 0  0.7 0.5 0.025  0.725 0.5 0  0.725 0.5 0.025  0.75 0.5 0  0.75 0.5 0.025  0.775 0.5 0  0.775 0.5 0.025  0.8 0.5 0  0.8 0.5 0.025  0.825 0.5 0  0.825 0.5 0.025  0.85 0.5 0  0.85 0.5 0.025  0.875 0.5 0  0.875 0.5 0.025  0.9 0.5 0  0.9 0.5 0.025  0.925 0.5 0  0.925 0.5 0.025  0.95 0.5 0  0.95 0.5 0.025  0.975 0.5 0  0.975 0.5 0.025  1 0.5 0  1 0.5 0.025  0.45 0.525 0  0.45 0.525 0.025  0.425 0.525 0  0.475 0.525 0  0.475 0.525 0.025  0.5 0.525 0  0.5 0.525 0.025  0.525 0.525 0  0.525 0.525 0.025  0.55 0.525 0  0.55 0.525 0.025  0.575 0.525 0  0.575 0.525 0.025  0.6 0.525 0  0.6 0.525 0.025  0.625 0.525 0  0.625 0.525 0.025  0.65 0.525 0  0.65 0.525 0.025  0.675 0.525 0  0.675 0.525 0.025  0.7 0.525 0  0.7 0.525 0.025  0.725 0.525 0  0.725 0.525 0.025  0.75 0.525 0  0.75 0.525 0.025  0.775 0.525 0  0.775 0.525 0.025  0.8 0.525 0  0.8 0.525 0.025  0.825 0.525 0  0.825 0.525 0.025  0.85 0.525 0  0.85 0.525 0.025  0.875 0.525 0  0.875 0.525 0.025  0.9 0.525 0  0.9 0.525 0.025  0.925 0.525 0  0.925 0.525 0.025  0.95 0.525 0  0.95 0.525 0.025  0.975 0.525 0  0.975 0.525 0.025  1 0.525 0  1 0.525 0.025  0.45 0.55 0  0.45 0.55 0.025  0.425 0.525 0.025  0.425 0.55 0  0.425 0.55 0.025  0.475 0.55 0  0.475 0.55 0.025  0.5 0.55 0  0.5 0.55 0.025  0.525 0.55 0  0.525 0.55 0.025  0.55 0.55 0  0.55 0.55 0.025  0.575 0.55 0  0.575 0.55 0.025  0.6 0.55 0  0.6 0.55 0.025  0.625 0.55 0  0.625 0.55 0.025  0.65 0.55 0  0.65 0.55 0.025  0.675 0.55 0  0.675 0.55 0.025  0.7 0.55 0  0.7 0.55 0.025  0.725 0.55 0  0.725 0.55 0.025  0.75 0.55 0  0.75 0.55 0.025  0.775 0.55 0  0.775 0.55 0.025  0.8 0.55 0  0.8 0.55 0.025  0.825 0.55 0  0.825 0.55 0.025  0.85 0.55 0  0.85 0.55 0.025  0.875 0.55 0  0.875 0.55 0.025  0.9 0.55 0  0.9 0.55 0.025  0.925 0.55 0  0.925 0.55 0.025  0.95 0.55 0  0.95 0.55 0.025  0.975 0.55 0  0.975 0.55 0.025  1 0.55 0  1 0.55 0.025  0.45 0.575 0  0.45 0.575 0.025  0.475 0.575 0  0.475 0.575 0.025  0.5 0.575 0  0.5 0.575 0.025  0.525 0.575 0  0.525 0.575 0.025  0.55 0.575 0  0.55 0.575 0.025  0.575 0.575 0  0.575 0.575 0.025  0.6 0.575 0  0.6 0.575 0.025  0.625 0.575 0  0.625 0.575 0.025  0.65 0.575 0  0.65 0.575 0.025  0.675 0.575 0  0.675 0.575 0.025  0.7 0.575 0  0.7 0.575 0.025  0.725 0.575 0  0.725 0.575 0.025  0.75 0.575 0  0.75 0.575 0.025  0.775 0.575 0  0.775 0.575 0.025  0.8 0.575 0  0.8 0.575 0.025  0.825 0.575 0  0.825 0.575 0.025  0.85 0.575 0  0.85 0.575 0.025  0.875 0.575 0  0.875 0.575 0.025  0.9 0.575 0  0.9 0.575 0.025  0.925 0.575 0  0.925 0.575 0.025  0.95 0.575 0  0.95 0.575 0.025  0.975 0.575 0  0.975 0.575 0.025  1 0.575 0  1 0.575 0.025  0.475 0.6 0  0.475 0.6 0.025  0.5 0.6 0  0.5 0.6 0.025  0.525 0.6 0  0.525 0.6 0.025  0.55 0.6 0  0.55 0.6 0.025  0.575 0.6 0  0.575 0.6 0.025  0.6 0.6 0  0.6 0.6 0.025  0.625 0.6 0  0.625 0.6 0.025  0.65 0.6 0  0.65 0.6 0.025  0.675 0.6 0  0.675 0.6 0.025  0.7 0.6 0  0.7 0.6 0.025  0.725 0.6 0  0.725 0.6 0.025  0.75 0.6 0  0.75 0.6 0.025  0.775 0.6 0  0.775 0.6 0.025  0.8 0.6 0  0.8 0.6 0.025  0.825 0.6 0  0.825 0.6 0.025  0.85 0.6 0  0.85 0.6 0.025  0.875 0.6 0  0.875 0.6 0.025  0.9 0.6 0  0.9 0.6 0.025  0.925 0.6 0  0.925 0.6 0.025  0.95 0.6 0  0.95 0.6 0.025  0.975 0.6 0  0.975 0.6 0.025  1 0.6 0  1 0.6 0.025  0.5 0.625 0  0.5 0.625 0.025  0.475 0.625 0.025  0.525 0.625 0  0.525 0.625 0.025  0.55 0.625 0  0.55 0.625 0.025  0.575 0.625 0  0.575 0.625 0.025  0.6 0.625 0  0.6 0.625 0.025  0.625 0.625 0  0.625 0.625 0.025  0.65 0.625 0  0.65 0.625 0.025  0.675 0.625 0  0.675 0.625 0.025  0.7 0.625 0  0.7 0.625 0.025  0.725 0.625 0  0.725 0.625 0.025  0.75 0.625 0  0.75 0.625 0.025  0.775 0.625 0  0.775 0.625 0.025  0.8 0.625 0  0.8 0.625 0.025  0.825 0.625 0  0.825 0.625 0.025  0.85 0.625 0  0.85 0.625 0.025  0.875 0.625 0  0.875 0.625 0.025  0.9 0.625 0  0.9 0.625 0.025  0.925 0.625 0  0.925 0.625 0.025  0.95 0.625 0  0.95 0.625 0.025  0.975 0.625 0  0.975 0.625 0.025  1 0.625 0  1 0.625 0.025  0.525 0.65 0  0.525 0.65 0.025  0.5 0.65 0  0.5 0.65 0.025  0.55 0.65 0  0.55 0.65 0.025  0.575 0.65 0  0.575 0.65 0.025  0.6 0.65 0  0.6 0.65 0.025  0.625 0.65 0  0.625 0.65 0.025  0.65 0.65 0  0.65 0.65 0.025  0.675 0.65 0  0.675 0.65 0.025  0.7 0.65 0  0.7 0.65 0.025  0.725 0.65 0  0.725 0.65 0.025  0.75 0.65 0  0.75 0.65 0.025  0.775 0.65 0  0.775 0.65 0.025  0.8 0.65 0  0.8 0.65 0.025  0.825 0.65 0  0.825 0.65 0.025  0.85 0.65 0  0.85 0.65 0.025  0.875 0.65 0  0.875 0.65 0.025  0.9 0.65 0  0.9 0.65 0.025  0.925 0.65 0  0.925 0.65 0.025  0.95 0.65 0  0.95 0.65 0.025  0.975 0.65 0  0.975 0.65 0.025  1 0.65 0  1 0.65 0.025  0.525 0.675 0  0.525 0.675 0.025  0.5 0.675 0  0.5 0.675 0.025  0.55 0.675 0  0.55 0.675 0.025  0.575 0.675 0  0.575 0.675 0.025  0.6 0.675 0  0.6 0.675 0.025  0.625 0.675 0  0.625 0.675 0.025  0.65 0.675 0  0.65 0.675 0.025  0.675 0.675 0  0.675 0.675 0.025  0.7 0.675 0  0.7 0.675 0.025  0.725 0.675 0  0.725 0.675 0.025  0.75 0.675 0  0.75 0.675 0.025  0.775 0.675 0  0.775 0.675 0.025  0.8 0.675 0  0.8 0.675 0.025  0.825 0.675 0  0.825 0.675 0.025  0.85 0.675 0  0.85 0.675 0.025  0.875 0.675 0  0.875 0.675 0.025  0.9 0.675 0  0.9 0.675 0.025  0.925 0.675 0  0.925 0.675 0.025  0.95 0.675 0  0.95 0.675 0.025  0.975 0.675 0  0.975 0.675 0.025  1 0.675 0  1 0.675 0.025  0.525 0.7 0.025  0.55 0.7 0  0.55 0.7 0.025  0.575 0.7 0  0.575 0.7 0.025  0.6 0.7 0  0.6 0.7 0.025  0.625 0.7 0  0.625 0.7 0.025  0.65 0.7 0  0.65 0.7 0.025  0.675 0.7 0  0.675 0.7 0.025  0.7 0.7 0  0.7 0.7 0.025  0.725 0.7 0  0.725 0.7 0.025  0.75 0.7 0  0.75 0.7 0.025  0.775 0.7 0  0.775 0.7 0.025  0.8 0.7 0  0.8 0.7 0.025  0.825 0.7 0  0.825 0.7 0.025  0.85 0.7 0  0.85 0.7 0.025  0.875 0.7 0  0.875 0.7 0.025  0.9 0.7 0  0.9 0.7 0.025  0.925 0.7 0  0.925 0.7 0.025  0.95 0.7 0  0.95 0.7 0.025  0.975 0.7 0  0.975 0.7 0.025  1 0.7 0  1 0.7 0.025  0.575 0.725 0  0.575 0.725 0.025  0.6 0.725 0  0.6 0.725 0.025  0.625 0.725 0  0.625 0.725 0.025  0.65 0.725 0  0.65 0.725 0.025  0.675 0.725 0  0.675 0.725 0.025  0.7 0.725 0  0.7 0.725 0.025  0.725 0.725 0  0.725 0.725 0.025  0.75 0.725 0  0.75 0.725 0.025  0.775 0.725 0  0.775 0.725 0.025  0.8 0.725 0  0.8 0.725 0.025  0.825 0.725 0  0.825 0.725 0.025  0.85 0.725 0  0.85 0.725 0.025  0.875 0.725 0  0.875 0.725 0.025  0.9 0.725 0  0.9 0.725 0.025  0.925 0.725 0  0.925 0.725 0.025  0.95 0.725 0  0.95 0.725 0.025  0.975 0.725 0  0.975 0.725 0.025  1 0.725 0  1 0.725 0.025  0.6 0.75 0  0.6 0.75 0.025  0.575 0.75 0  0.625 0.75 0  0.625 0.75 0.025  0.65 0.75 0  0.65 0.75 0.025  0.675 0.75 0  0.675 0.75 0.025  0.7 0.75 0  0.7 0.75 0.025  0.725 0.75 0  0.725 0.75 0.025  0.75 0.75 0  0.75 0.75 0.025  0.775 0.75 0  0.775 0.75 0.025  0.8 0.75 0  0.8 0.75 0.025  0.825 0.75 0  0.825 0.75 0.025  0.85 0.75 0  0.85 0.75 0.025  0.875 0.75 0  0.875 0.75 0.025  0.9 0.75 0  0.9 0.75 0.025  0.925 0.75 0  0.925 0.75 0.025  0.95 0.75 0  0.95 0.75 0.025  0.975 0.75 0  0.975 0.75 0.025  1 0.75 0  1 0.75 0.025  0.6 0.775 0  0.6 0.775 0.025  0.625 0.775 0  0.625 0.775 0.025  0.65 0.775 0  0.65 0.775 0.025  0.675 0.775 0  0.675 0.775 0.025  0.7 0.775 0  0.7 0.775 0.025  0.725 0.775 0  0.725 0.775 0.025  0.75 0.775 0  0.75 0.775 0.025  0.775 0.775 0  0.775 0.775 0.025  0.8 0.775 0  0.8 0.775 0.025  0.825 0.775 0  0.825 0.775 0.025  0.85 0.775 0  0.85 0.775 0.025  0.875 0.775 0  0.875 0.775 0.025  0.9 0.775 0  0.9 0.775 0.025  0.925 0.775 0  0.925 0.775 0.025  0.95 0.775 0  0.95
[...]
<PointData  Vectors="f_123"> 
<DataArray  type="Float64"  Name="f_123"  NumberOfComponents="3" format="ascii">-9.9803208319034837e+00 2.3677029566950268e-03 7.8753749059930938e-04  -9.9828235403065335e+00 2.6850814702990234e-03 9.2557033899436233e-04  -9.9825543148972091e+00 2.1721365696779666e-03 9.4604550502104306e-04  -1.0007101071048670e+01 2.2075041640630408e-03 2.7643222206132447e-03  -9.9800158945412178e+00 1.9151123978564557e-03 8.0519707884006784e-04  -9.9855271240971764e+00 2.3936147558214272e-03 1.0890975526009446e-03  -1.0009487814628425e+01 2.4334148503993482e-03 3.1703138259692207e-03  -9.9891249786659859e+00 3.1821724360280045e-03 1.2081349065507781e-03  -9.9929536972269943e+00 3.3441496460179130e-03 1.3514012332039209e-03  -9.9928385492345644e+00 2.7017945655050824e-03 1.3795146736372544e-03  -1.0015301311609713e+01 2.7491709395542768e-03 3.9764348723864834e-03  -9.9889501335367683e+00 2.5726215088617160e-03 1.2338926050027921e-03  -9.9972523331949006e+00 3.4357512143338956e-03 1.4942274799596626e-03  -9.9972055992698881e+00 2.7734933664504999e-03 1.5244042225302152e-03  -1.0018730748336370e+01 2.8237626402463642e-03 4.3653925149338049e-03  -1.0002058815717307e+01 2.7800547904471094e-03 1.6660742201013387e-03  -1.0022499088290692e+01 2.8324121768095248e-03 4.7323491127227299e-03  -9.9761829529494470e+00 1.3195278050025295e-03 5.3041161965264295e-04  -9.9778966946088605e+00 1.6289511665591545e-03 6.6668630091256439e-04  -9.9776336645761301e+00 1.2209011799596799e-03 6.7818831335637018e-04  -1.0003314736762567e+01 1.2402438705486722e-03 1.9933418339988700e-03  -9.9759017386867495e+00 9.8622884916357368e-04 5.3964876410329734e-04  -9.9797760134470028e+00 1.4376910925164774e-03 8.1892771341818445e-04  -1.0005046763482447e+01 1.4607632592498320e-03 2.4001039095265433e-03  -9.9823429983847234e+00 1.6321196723995375e-03 9.6194780675250746e-04  -1.0007114599901284e+01 1.6587437920809504e-03 2.8102126820543326e-03  -9.9853502427816867e+00 1.7993264302275771e-03 1.1070860493928663e-03  -1.0009526126259686e+01 1.8292666013905532e-03 3.2221826332877374e-03  -9.9888139682511934e+00 1.9340888438755947e-03 1.2538438434285064e-03  -1.0012288057028336e+01 1.9670379537228954e-03 3.6332597679428896e-03  -9.9927496858661495e+00 2.0308892688532445e-03 1.4012559421815512e-03  -1.0015404369083146e+01 2.0664544762611274e-03 4.0389293051884389e-03  -9.9971707425735286e+00 2.0840408892151040e-03 1.5477002542548122e-03  -1.0018874223841339e+01 2.1217275231511217e-03 4.4321960751404288e-03  -1.0002084525348749e+01 2.0878853947639839e-03 1.6906115215949500e-03  -1.0022688284201450e+01 2.1270790805801160e-03 4.8024943502461412e-03  -1.0007400527655035e+01 2.7141642183255818e-03 1.8006600272851016e-03  -1.0007492800935953e+01 2.0370741413422984e-03 1.8260281718833636e-03  -1.0026825763450072e+01 2.0770210380330590e-03 5.1339609196912632e-03  -1.0013206866473093e+01 2.5693632341337231e-03 1.9221996455467743e-03  -1.0013370743520390e+01 1.9269475299517936e-03 1.9478681441838803e-03  -1.0031240916137836e+01 1.9667301156894666e-03 5.4025429684666825e-03  -1.0019471532727630e+01 2.3407047850800382e-03 2.0209458372224330e-03  -1.0019710102856955e+01 1.7540165964862902e-03 2.0462320559479440e-03  -1.0035875465948244e+01 1.7925232232866165e-03 5.5709519385382334e-03  -1.0026009633938088e+01 2.0255964422296545e-03 2.0827530456962854e-03  -1.0026324383589433e+01 1.5165801069441252e-03 2.1067851942913130e-03  -1.0040556577446059e+01 1.5524589056883525e-03 5.5785716274366296e-03  -1.0033412467527011e+01 1.2154539891121822e-03 2.0915382204782368e-03  -1.0045269967345799e+01 1.2470294734569448e-03 5.3205283626464248e-03  -9.9730583698990554e+00 2.1453209021497926e-04 1.3407827766745236e-04  -9.9736226298120005e+00 4.7937609115071859e-04 2.6801788040738036e-04  -9.9734032455977779e+00 2.9988711364315721e-04 2.7134298695041445e-04  -1.0000016436583614e+01 3.0482567557632475e-04 8.0498696060938766e-04  -9.9728350433153956e+00 1.2233313555934808e-04 1.3575691990771736e-04  -9.9745680111267241e+00 7.3778871442851577e-04 4.0305245547122827e-04  -9.9743554652686655e+00 4.7314758154583014e-04 4.0801816658866990e-04  -1.0000790417005774e+01 4.8079159078589622e-04 1.2055717937830910e-03  -9.9756991053268624e+00 6.3971527178908550e-04 5.4624432434910073e-04  -1.0001880890724118e+01 6.5002117354136040e-04 1.6093490479086110e-03  -9.9774442559099974e+00 7.9702643515389571e-04 6.8639551992598444e-04  -1.0003294257695655e+01 8.0992919944873967e-04 2.0168731518828233e-03  -9.9796034254137336e+00 9.4231102493038765e-04 8.2871744806636317e-04  -1.0005038127681104e+01 9.5771929083461344e-04 2.4282119421463622e-03  -9.9821911362692273e+00 1.0725646941616687e-03 9.7327559148672874e-04  -1.0007120785769455e+01 1.0903547040503709e-03 2.8427531706030121e-03  -9.9852233199672789e+00 1.1845397014057682e-03 1.1198865573255909e-03  -1.0009550416456355e+01 1.2045480671816415e-03 3.2589479064660154e-03  -9.9887164693766692e+00 1.2747606956558801e-03 1.2680242891125724e-03  -1.0012334006792710e+01 1.2967760647626574e-03 3.6739592535435946e-03  -9.9926862873192057e+00 1.3395722028233627e-03 1.4166882552368893e-03  -1.0015475733404070e+01 1.3633258949578302e-03 4.0831664327975296e-03  -9.9971461735974767e+00 1.3752251926606391e-03 1.5642119068110549e-03  -1.0018974830948427e+01 1.4003808991178096e-03 4.4794411598774722e-03  -1.0002103382001749e+01 1.3780107118862076e-03 1.7079747570345593e-03  -1.0022821855520824e+01 1.4041530931914992e-03 4.8520527430758967e-03  -1.0007559230913818e+01 1.3444473956957608e-03 1.8439471941685923e-03  -1.0026995638409639e+01 1.3710696251745670e-03 5.1849350582676102e-03  -1.0013488224388073e+01 1.2715328265488649e-03 1.9659630922175542e-03  -1.0031449778166110e+01 1.2980209629007407e-03 5.4537854670485006e-03  -1.0019880560302637e+01 1.1570577297468829e-03 2.0640173380648665e-03  -1.0036124728724589e+01 1.1826713749434805e-03 5.6210039878459815e-03  -1.0026549049686396e+01 1.0000112215350463e-03 2.1236416102120765e-03  -1.0040846468687370e+01 1.0238543231610869e-03 5.6255725580919317e-03  -1.0033686409513617e+01 8.0104639779978966e-04 2.1066184059802227e-03  -1.0045597048642533e+01 8.2201200250304324e-04 5.3620666203589174e-03  -1.0039968704525702e+01 5.6331029442036138e-04 1.9688144642454326e-03  -1.0049407081723674e+01 5.7974126439536903e-04 4.6476540826432813e-03  -9.9728354437762814e+00 -2.3656670600994724e-04 -1.3423982855730035e-04  -9.9726463102272778e+00 -5.7228222370494998e-05 7.4346191905608469e-07  -9.9725117019883331e+00 -6.0903629255866803e-05 7.6391654191509424e-07  -9.9993728461470024e+00 -6.1378432961467738e-05 9.3028476283741079e-06  -9.9727019009386488e+00 -1.4954572133112515e-04 -1.3520608404972298e-04  -9.9727010435401677e+00 2.7968388189385290e-05 1.3676372507670663e-04  -9.9995268658106315e+00 2.8896878118863413e-05 4.0924770882674497e-04  -9.9732715461424810e+00 1.1595484979394538e-04 2.7333409254570073e-04  -9.9999906788522424e+00 1.1828162899482279e-04 8.1038673035904035e-04  -9.9742278199046712e+00 2.0191582500469105e-04 4.1098930612048682e-04  -1.0000767372503987e+01 2.0562773258702100e-04 1.2138137822632947e-03  -9.9755773704568202e+00 2.8465896249508480e-04 5.5018799210205702e-04  -1.0001861874961836e+01 2.8973350012895970e-04 1.6204082140649971e-03  -9.9773304255360884e+00 3.6291443739172488e-04 6.9129943079368646e-04  -1.0003280719896077e+01 3.6931796737436472e-04 2.0307096834387109e-03  -9.9794996574253041e+00 4.3531463314584084e-04 8.3456245539271947e-04  -1.0005031677096509e+01 4.4299996005710550e-04 2.4447652739039974e-03  -9.9820997664818254e+00 5.0038068898056252e-04 9.8003302889016148e-04  -1.0007123206614999e+01 5.0928403693619654e-04 2.8619343136135219e-03  -9.9851468600015139e+00 5.5651842754234028e-04 1.1275149713067460e-03  -1.0009563667617160e+01 5.6655583867496568e-04 3.2806299833190024e-03  -9.9886575828966251e+00 6.0202658296552804e-04 1.2764655202801337e-03  -1.0012360201429468e+01 6.1308977424141830e-04 3.6979661205777145e-03  -9.9926477417398392e+00 6.3512064929444501e-04 1.4258628163431838e-03  -1.0015517094376140e+01 6.4707236205495519e-04 4.1092592356267209e-03  -9.9971307536862373e+00 6.5397587146889564e-04 1.5740135855098342e-03  -1.0019033613143721e+01 6.6664477507240706e-04 4.5073025983917870e-03  -1.0002113785757816e+01 6.5679333782369417e-04 1.7182642765338210e-03  -1.0022900241129280e+01 6.6996833640525473e-04 4.8812686292051344e-03  -1.0007597857493664e+01 6.4189194305687100e-04 1.8545447067590233e-03  -1.0027095561961543e+01 6.5531610483200416e-04 5.2149723803501741e-03  -1.0013557123128361e+01 6.0783253659440421e-04 1.9766385317919986e-03  -1.0031572801247597e+01 6.2119497952101014e-04 5.4839652603690591e-03  -1.0019980651296686e+01 5.5356927878226470e-04 2.0744783181857085e-03  -1.0036271558264373e+01 5.6649577895099721e-04 5.6504656899132311e-03  -1.0026681477618046e+01 4.7865274235324413e-04 2.1335136737442480e-03  -1.0041017395703703e+01 4.9069197381095518e-04 5.6532210436244165e-03  -1.0033846534835524e+01 3.8344565380664343e-04 2.1153937170363536e-03  -1.0045789245343872e+01 3.9404090372598225e-04 5.3864891361079022e-03  -1.0040164644471387e+01 2.6962945507644529e-04 1.9758679793975024e-03  -1.0049621719057747e+01 2.7784580552924068e-04 4.6669859167024885e-03  -1.0047806697127315e+01 2.9112130749519574e-04 1.4922219701521723e-03  -1.0047994073315603e+01 1.3846773310045919e-04 1.4963671277850867e-03  -1.0054103245558888e+01 1.4528438112811526e-04 3.0183947364670997e-03  -1.0053887710071939e+01 3.0296553977965005e-04 3.0070991168342884e-03  -1.0048611182556298e+01 8.9257854846813893e-06 -7.0343033311936652e-04  -1.0048893069143466e+01 8.9458696899423511e-06 -7.0627656503566619e-04  -1.0051569202210707e+01 -9.4760069960405745e-07 -8.2606807559564360e-05  -9.9742294911269003e+00 -3.2162487038269160e-04 -4.0918938353421677e-04  -9.9732730372537883e+00 -2.3683756467171295e-04 -2.7168639779701184e-04  -9.9732316158277765e+00 -5.7764248236998975e-05 -2.7231890264600662e-04  -9.9999854106666852e+00 -5.8292586111765828e-05 -7.9401708565851831e-04  -9.9741897132591646e+00 -5.4172798607814924e-05 -4.1014253652462974e-04  -9.9726594185340627e+00 -6.1172903151296984e-05 -1.3551692528212010e-04  -9.9995203887362791e+00 -6.1645977722643444e-05 -3.9194285791582074e-04  -9.9724687154090432e+00 -6.4375989147516220e-05 7.7498169976365133e-07  -9.9993653156467115e+00 -6.4792322784161906e-05 8.9207433957236998e-06  -9.9726580973492887e+00 -6.7346402359961052e-05 1.3709629011276613e-04  -9.9995192851582360e+00 -6.7704932762141344e-05 4.0977778314135944e-04  -9.9732291867429677e+00 -7.0051449079701090e-05 2.7398706571291190e-04  -9.9999834152085967e+00 -7.0351458666760894e-05 8.1182629344686704e-04  -9.9741866094283367e+00 -7.2451770282555623e-05 4.1196071388556005e-04  -1.0000760808071311e+01 -7.2692834723002945e-05 1.2161577022830876e-03  -9.9755378997137303e+00 -7.4500478418899232e-05 5.5147461572041111e-04  -1.0001856419664890e+01 -7.4682437412885292e-05 1.6236480770154753e-03  -9.9772933251890539e+00 -7.6142555028600286e-05 6.9289627158020475e-04  -1.0003276822455318e+01 -7.6265505602241080e-05 2.0348324673125058e-03  -9.9794656064609466e+00 -7.7314565770464019e-05 8.3646201851649872e-04  -1.0005029833616694e+01 -7.7378881101138614e-05 2.4497515139835103e-03  -9.9820694967849342e+00 -7.7944771788939952e-05 9.8222441534805789e-04  -1.0007123965605579e+01 -7.7951146883653677e-05 2.8677557302253720e-03  -9.9851211559645172e+00 -7.7953719906174337e-05 1.1299827656670676e-03  -1.0009567630296461e+01 -7.7903249991849517e-05 3.2872465389434777e-03  -9.9886372737324507e+00 -7.7255408899644319e-05 1.2791884605094629e-03  -1.0012368015512500e+01 -7.7149702067260613e-05 3.7053224681487949e-03  -9.9926336875547346e+00 -7.5759089997512580e-05 1.4288122243084692e-03  -1.0015529440892793e+01 -7.5600431818376556e-05 4.1172805084444377e-03  -9.9971238144117649e+00 -7.3371826020936451e-05 1.5771515340716061e-03  -1.0019051180574571e+01 -7.3163372267442300e-05 4.5158894748712477e-03  -1.0002114801083247e+01 -7.0001549681160231e-05 1.7215414075886666e-03  -1.0022923698325934e+01 -6.9747690007490335e-05 4.8902915339789381e-03  -1.0007607537977409e+01 -6.5561466797241531e-05 1.8578976878677095e-03  -1.0027125484095404e+01 -6.5267960526177365e-05 5.2242646052375668e-03  -1.0013576168941865e+01 -5.9972616189649009e-05 1.9799863685625364e-03  -1.0031609692373774e+01 -5.9647717803217174e-05 5.4933144599768587e-03  -1.0020009067628161e+01 -5.3173090163785008e-05 2.0777193526965924e-03  -1.0036315495821388e+01 -5.2827533805751738e-05 5.6596028380504690e-03  -1.0026720419785599e+01 -4.5112266252851910e-05 2.1365133246074000e-03  -1.0041068820000017e+01 -4.4758334828105963e-05 5.6618032895334137e-03  -1.0033891743168924e+01 -3.5778510411134055e-05 2.1179754489226129e-03  -1.0045846014090067e+01 -3.5431825731245878e-05 5.3940806809551723e-03  -1.0040227775658192e+01 -2.5003429924376445e-05 1.9778409304260997e-03  -1.0049688140779352e+01 -2.4891319749214684e-05 4.6729949052837774e-03  -1.0048031301275524e+01 -1.4605175981967409e-05 1.4970986204850256e-03  -1.0054158598119496e+01 -1.2741908872822754e-05 3.0219074979898172e-03  -1.0049023192979648e+01 8.9488224672813463e-06 -7.0755525786138579e-04  -1.0051682001617905e+01 -9.6552307239485622e-07 -8.2263394857392383e-05  -9.9732800790130725e+00 1.2151754358208025e-04 -2.7163130933902612e-04  -9.9999986542935453e+00 1.2372683224063960e-04 -7.9238000919397574e-04  -9.9742368814290998e+00 2.1346905184822175e-04 -4.0911379335634938e-04  -9.9727085548814891e+00 2.7423830721382445e-05 -1.3517204452798826e-04  -9.9995340401914419e+00 2.8353617989973557e-05 -3.9134484133832953e-04  -9.9725179216181559e+00 -6.7613142658648462e-05 7.7624797426760380e-07  -9.9993789476650825e+00 -6.7970242091094365e-05 8.4771737619313135e-06  -9.9727067723543090e+00 -1.6241968934063665e-04 1.3675350383766458e-04  -9.9995324723493528e+00 -1.6406422118979180e-04 4.0829228381934968e-04  -9.9732767151935455e+00 -2.5581572165259771e-04 2.7330022022444900e-04  -9.9999957180850707e+00 -2.5874130297814414e-04 8.0930082916147081e-04  -9.9742323457372404e+00 -3.4658328356961470e-04 4.1093036499913047e-04  -1.0000771757622692e+01 -3.5077593941473844e-04 1.2125971933657945e-03  -9.9755811534884717e+00 -4.3343681689051664e-04 5.5010217823356312e-04  -1.0001865503240012e+01 -4.3887374074856969e-04 1.6190615762585972e-03  -9.9773333489649918e+00 -5.1499684518693269e-04 6.9118448567400347e-04  -1.0003283471824039e+01 -5.2164458573095596e-04 2.0292348854670495e-03  -9.9795015868429253e+00 -5.8976901376538821e-04 8.3441559187846868e-04  -1.0005033416246874e+01 -5.9758109583294631e-04 2.4431659154050306e-03  -9.9821005502001245e+00 -6.5613077136990523e-04 9.7985085083410715e-04  -1.0007123780350971e+01 -6.6504476806174425e-04 2.8602162278497214e-03  -9.9851463308019568e+00 -7.1232838213021346e-04 1.1272933805582823e-03  -1.0009562909050018e+01 -7.2226247254539311e-04 3.2788018172986242e-03  -9.9886555596465172e+00 -7.5648738827194164e-04 1.2761996083498119e-03  -1.0012357932074314e+01 -7.6733644426743889e-04 3.6960399697432466e-03  -9.9926440368868015e+00 -7.8663997963213149e-04 1.4255467234923949e-03  -1.0015513130168520e+01 -7.9827125048454264e-04 4.1072513289538573e-03  -9.9971251672958701e+00 -8.0077305798061658e-04 1.5736403290852513e-03  -1.0019027765441036e+01 -8.1302146562239029e-04 4.5052340471988649e-03  -1.0002106150219582e+01 -7.9690045839549237e-04 1.7178254500885156e-03  -1.0022892341011017e+01 -8.0956364042343262e-04 4.8791662357646247e-03  -1.0007587922631089e+01 -7.7316381374947112e-04 1.8540302435910911e-03  -1.0027085413133287e+01 -7.8599633365940063e-04 5.2128696366456981e-03  -1.0013544964146918e+01 -7.2796199760585736e-04 1.9760351431892492e-03  -1.0031560373355292e+01 -7.4066950388875072e-04 5.4819036032686093e-03  -1.0019965389295040e+01 -6.6012125503521946e-04 2.0737724660617662e-03  -1.0036256398766531e+01 -6.7235105348987698e-04 5.6484965931140130e-03  -1.0026665467154983e+01 -5.6908694127084263e-04 2.1326742055796594e-03  -1.0041000563084866e+01 -5.8041248684916134e-04 5.6514070130507790e-03  -1.0033821655047396e+01 -4.5519569512927292e-04 2.1143960361263412e-03  -1.0045767156537339e+01 -4.6509170065542181e-04 5.3849289131971236e-03  -1.0040157771234448e+01 -3.1978905679309856e-04 1.9747605161501546e-03  -1.0049606162447864e+01 -3.2777563549711640e-04 4.6657580275657794e-03  -1.0047918147732691e+01 -1.6776655858014868e-04 1.4944273107037568e-03  -1.0054053588492389e+01 -1.7085558690745162e-04 3.0176870201337391e-03  -1.0049001163081300e+01 8.9352372969152650e-06 -7.0728572769220607e-04  -1.0051636931797740e+01 -9.7608048379004679e-07 -8.1617788417036587e-05  -9.9734178600694605e+00 2.9875668240703605e-04 -2.6962503968993109e-04  -1.0000030374200918e+01 3.0369063328205550e-04 -7.8690488816239373e-04  -1.0000775656650736e+01 2.1694313497143224e-04 -1.1957408914022184e-03  -9.9743704681242029e+00 4.7798921397061397e-04 -4.0610470843744430e-04  -1.0000804516036112e+01 4.8549958335232003e-04 -1.1872925472778554e-03  -9.9728487216620998e+00 1.1512103987981977e-04 -1.3417248578886153e-04  -9.9995673463778427e+00 1.1744815101386150e-04 -3.8885683369225350e-04  -9.9726587286294883e+00 -7.0577287218242474e-05 7.6717809874423724e-07  -9.9994126267209236e+00 -7.0872802489270207e-05 7.9717026130931494e-06  -9.9728464908587480e+00 -2.5605305826974895e-04 1.3573534703673480e-04  -9.9995653267884634e+00 -2.5897341137849113e-04 4.0479315170931972e-04  -9.9734135858865489e+00 -4.3901376633788966e-04 2.7127394818503867e-04  -1.0000026520587603e+01 -4.4454748950113499e-04 8.0281419785564767e-04  -9.9743645327097994e+00 -6.1709736351894286e-04 4.0789883854364654e-04  -1.0000799206484624e+01 -6.2521803534683134e-04 1.2031372336270998e-03  -9.9757067018058763e+00 -7.8781312325759548e-04 5.4607110394640972e-04  -1.0001888181191992e+01 -7.9847691534041013e-04 1.6066536672032605e-03  -9.9774501484834630e+00 -9.4848886567851871e-04 6.8616388513612981e-04  -1.0003299810674163e+01 -9.6163090712779193e-04 2.0139204024122101e-03  -9.9796073453748342e+00 -1.0962282813692713e-03 8.2842180859132278e-04  -1.0005041670264980e+01 -1.1117578482410045e-03 2.4250086814260959e-03  -9.9821927796106724e+00 -1.2278827938447480e-03 9.7290912427630723e-04  -1.0007122011849402e+01 -1.2456773471139792e-03 2.8393107210303980e-03  -9.9852223506732258e+00 -1.3400432521880547e-03 1.1194410172388762e-03  -1.0009548990430169e+01 -1.3599413731231779e-03 3.2552832359318859e-03  -9.9887125224373481e+00 -1.4290576499686111e-03 1.2674897864561978e-03  -1.0012329568682171e+01 -1.4508509487758615e-03 3.6700962726496549e-03  -9.9926789835879841e+00 -1.4910818725785747e-03 1.4160529678572732e-03  -1.0015467910762126e+01 -1.5145059763219963e-03 4.0791373986903594e-03  -9.9971351076692798e+00 -1.5221711816956276e-03 1.5634617306065303e-03  -1.0018963240768985e+01 -1.5468958450529848e-03 4.4752882151307561e-03  -1.0002088212012813e+01 -1.5184199908358537e-03 1.7070926946475002e-03  -1.0022806153097518e+01 -1.5440384573128030e-03 4.8478295765703215e-03  -1.0007539447948606e+01 -1.4761585450492061e-03 1.8429128766174409e-03  -1.0026975422932200e+01 -1.5021754009357830e-03 5.1807089480712422e-03  -1.0013463971857277e+01 -1.3922100911759544e-03 1.9647496208514848e-03  -1.0031424981426232e+01 -1.4180279785790104e-03 5.4496398301516948e-03  -1.0019850067143169e+01 -1.2642248554528485e-03 2.0625973058976711e-03  -1.0036094434766849e+01 -1.2891250791301732e-03 5.6170426123153894e-03  -1.0026517028050431e+01 -1.0910744744542149e-03 2.1219519723864170e-03  -1.0040812795098923e+01 -1.1141864067350678e-03 5.6219215760149417e-03  -1.0033636588719302e+01 -8.7337717079649137e-04 2.1046096484844314e-03  -1.0045552803708389e+01 -8.9362582676224005e-04 5.3589254036572513e-03  -1.0039954861691568e+01 -6.1393042426197044e-04 1.9665830936053011e-03  -1.0049375886378431e+01 -6.3011480731033011e-04 4.6451809618078552e-03  -1.0047654737400544e+01 -3.2068706160307399e-04 1.488312917584