<?xml version="1.0"?>
<VTKFile type="UnstructuredGrid"  version="0.1"  >
<UnstructuredGrid>
<Piece  NumberOfPoints="7656" NumberOfCells="39114">
<Points>
<DataArray  type="Float64"  NumberOfComponents="3"  format="ascii">0 0 0  0.025 0 0  0.025 0.025 0  0.025 0.025 0.025  0.025 0 0.025  0 0 0.025  0 0.025 0  0 0.025 0.025  0.05 0 0  0.05 0.025 0  0.05 0.025 0.025  0.05 0 0.025  0.075 0 0  0.075 0.025 0  0.075 0.025 0.025  0.075 0 0.025  0.1 0 0  0.1 0.025 0  0.1 0.025 0.025  0.1 0 0.025  0.125 0 0  0.125 0.025 0  0.125 0.025 0.025  0.125 0 0.025  0.15 0 0  0.15 0.025 0  0.15 0.025 0.025  0.15 0 0.025  0.175 0 0  0.175 0.025 0  0.175 0.025 0.025  0.175 0 0.025  0.2 0 0  0.2 0.025 0  0.2 0.025 0.025  0.2 0 0.025  0.225 0 0  0.225 0.025 0  0.225 0.025 0.025  0.225 0 0.025  0.25 0 0  0.25 0.025 0  0.25 0.025 0.025  0.25 0 0.025  0.275 0 0  0.275 0.025 0  0.275 0.025 0.025  0.275 0 0.025  0.3 0 0  0.3 0.025 0  0.3 0.025 0.025  0.3 0 0.025  0.325 0 0  0.325 0.025 0  0.325 0.025 0.025  0.325 0 0.025  0.35 0 0  0.35 0.025 0  0.35 0.025 0.025  0.35 0 0.025  0.375 0 0  0.375 0.025 0  0.375 0.025 0.025  0.375 0 0.025  0.4 0 0  0.4 0.025 0  0.4 0.025 0.025  0.4 0 0.025  0.425 0 0  0.425 0.025 0  0.425 0.025 0.025  0.425 0 0.025  0.45 0 0  0.45 0.025 0  0.45 0.025 0.025  0.45 0 0.025  0.475 0 0  0.475 0.025 0  0.475 0.025 0.025  0.475 0 0.025  0.5 0 0  0.5 0.025 0  0.5 0.025 0.025  0.5 0 0.025  0.025 0.05 0  0.025 0.05 0.025  0 0.05 0  0 0.05 0.025  0.05 0.05 0  0.05 0.05 0.025  0.075 0.05 0  0.075 0.05 0.025  0.1 0.05 0  0.1 0.05 0.025  0.125 0.05 0  0.125 0.05 0.025  0.15 0.05 0  0.15 0.05 0.025  0.175 0.05 0  0.175 0.05 0.025  0.2 0.05 0  0.2 0.05 0.025  0.225 0.05 0  0.225 0.05 0.025  0.25 0.05 0  0.25 0.05 0.025  0.275 0.05 0  0.275 0.05 0.025  0.3 0.05 0  0.3 0.05 0.025  0.325 0.05 0  0.325 0.05 0.025  0.35 0.05 0  0.35 0.05 0.025  0.375 0.05 0  0.375 0.05 0.025  0.4 0.05 0  0.4 0.05 0.025  0.425 0.05 0  0.425 0.05 0.025  0.45 0.05 0  0.45 0.05 0.025  0.475 0.05 0  0.475 0.05 0.025  0.5 0.05 0  0.5 0.05 0.025  0.525 0.05 0  0.525 0.05 0.025  0.025 0.075 0  0.025 0.075 0.025  0 0.075 0  0 0.075 0.025  0.05 0.075 0  0.05 0.075 0.025  0.075 0.075 0  0.075 0.075 0.025  0.1 0.075 0  0.1 0.075 0.025  0.125 0.075 0  0.125 0.075 0.025  0.15 0.075 0  0.15 0.075 0.025  0.175 0.075 0  0.175 0.075 0.025  0.2 0.075 0  0.2 0.075 0.025  0.225 0.075 0  0.225 0.075 0.025  0.25 0.075 0  0.25 0.075 0.025  0.275 0.075 0  0.275 0.075 0.025  0.3 0.075 0  0.3 0.075 0.025  0.325 0.075 0  0.325 0.075 0.025  0.35 0.075 0  0.35 0.075 0.025  0.375 0.075 0  0.375 0.075 0.025  0.4 0.075 0  0.4 0.075 0.025  0.425 0.075 0  0.425 0.075 0.025  0.45 0.075 0  0.45 0.075 0.025  0.475 0.075 0  0.475 0.075 0.025  0.5 0.075 0  0.5 0.075 0.025  0.525 0.075 0  0.525 0.075 0.025  0.025 0.1 0  0.025 0.1 0.025  0 0.1 0  0 0.1 0.025  0.05 0.1 0  0.05 0.1 0.025  0.075 0.1 0  0.075 0.1 0.025  0.1 0.1 0  0.1 0.1 0.025  0.125 0.1 0  0.125 0.1 0.025  0.15 0.1 0  0.15 0.1 0.025  0.175 0.1 0  0.175 0.1 0.025  0.2 0.1 0  0.2 0.1 0.025  0.225 0.1 0  0.225 0.1 0.025  0.25 0.1 0  0.25 0.1 0.025  0.275 0.1 0  0.275 0.1 0.025  0.3 0.1 0  0.3 0.1 0.025  0.325 0.1 0  0.325 0.1 0.025  0.35 0.1 0  0.35 0.1 0.025  0.375 0.1 0  0.375 0.1 0.025  0.4 0.1 0  0.4 0.1 0.025  0.425 0.1 0  0.425 0.1 0.025  0.45 0.1 0  0.45 0.1 0.025  0.475 0.1 0  0.475 0.1 0.025  0.5 0.1 0  0.5 0.1 0.025  0.525 0.1 0  0.525 0.1 0.025  0.025 0.125 0  0.025 0.125 0.025  0 0.125 0  0 0.125 0.025  0.05 0.125 0  0.05 0.125 0.025  0.075 0.125 0  0.075 0.125 0.025  0.1 0.125 0  0.1 0.125 0.025  0.125 0.125 0  0.125 0.125 0.025  0.15 0.125 0  0.15 0.125 0.025  0.175 0.125 0  0.175 0.125 0.025  0.2 0.125 0  0.2 0.125 0.025  0.225 0.125 0  0.225 0.125 0.025  0.25 0.125 0  0.25 0.125 0.025  0.275 0.125 0  0.275 0.125 0.025  0.3 0.125 0  0.3 0.125 0.025  0.325 0.125 0  0.325 0.125 0.025  0.35 0.125 0  0.35 0.125 0.025  0.375 0.125 0  0.375 0.125 0.025  0.4 0.125 0  0.4 0.125 0.025  0.425 0.125 0  0.425 0.125 0.025  0.45 0.125 0  0.45 0.125 0.025  0.475 0.125 0  0.475 0.125 0.025  0.5 0.125 0  0.5 0.125 0.025  0.525 0.125 0  0.525 0.125 0.025  0.025 0.15 0  0.025 0.15 0.025  0 0.15 0  0 0.15 0.025  0.05 0.15 0  0.05 0.15 0.025  0.075 0.15 0  0.075 0.15 0.025  0.1 0.15 0  0.1 0.15 0.025  0.125 0.15 0  0.125 0.15 0.025  0.15 0.15 0  0.15 0.15 0.025  0.175 0.15 0  0.175 0.15 0.025  0.2 0.15 0  0.2 0.15 0.025  0.225 0.15 0  0.225 0.15 0.025  0.25 0.15 0  0.25 0.15 0.025  0.275 0.15 0  0.275 0.15 0.025  0.3 0.15 0  0.3 0.15 0.025  0.325 0.15 0  0.325 0.15 0.025  0.35 0.15 0  0.35 0.15 0.025  0.375 0.15 0  0.375 0.15 0.025  0.4 0.15 0  0.4 0.15 0.025  0.425 0.15 0  0.425 0.15 0.025  0.45 0.15 0  0.45 0.15 0.025  0.475 0.15 0  0.475 0.15 0.025  0.5 0.15 0  0.5 0.15 0.025  0.525 0.15 0  0.525 0.15 0.025  0.55 0.15 0.025  0.025 0.175 0  0.025 0.175 0.025  0.05 0.175 0  0.05 0.175 0.025  0.075 0.175 0  0.075 0.175 0.025  0.1 0.175 0  0.1 0.175 0.025  0.125 0.175 0  0.125 0.175 0.025  0.15 0.175 0  0.15 0.175 0.025  0.175 0.175 0  0.175 0.175 0.025  0.2 0.175 0  0.2 0.175 0.025  0.225 0.175 0  0.225 0.175 0.025  0.25 0.175 0  0.25 0.175 0.025  0.275 0.175 0  0.275 0.175 0.025  0.3 0.175 0  0.3 0.175 0.025  0.325 0.175 0  0.325 0.175 0.025  0.35 0.175 0  0.35 0.175 0.025  0.375 0.175 0  0.375 0.175 0.025  0.4 0.175 0  0.4 0.175 0.025  0.425 0.175 0  0.425 0.175 0.025  0.45 0.175 0  0.45 0.175 0.025  0.475 0.175 0  0.475 0.175 0.025  0.5 0.175 0  0.5 0.175 0.025  0.525 0.175 0  0.525 0.175 0.025  0.55 0.175 0.025  0.55 0.175 0  0.05 0.2 0.025  0.075 0.2 0  0.075 0.2 0.025  0.1 0.2 0  0.1 0.2 0.025  0.125 0.2 0  0.125 0.2 0.025  0.15 0.2 0  0.15 0.2 0.025  0.175 0.2 0  0.175 0.2 0.025  0.2 0.2 0  0.2 0.2 0.025  0.225 0.2 0  0.225 0.2 0.025  0.25 0.2 0  0.25 0.2 0.025  0.275 0.2 0  0.275 0.2 0.025  0.3 0.2 0  0.3 0.2 0.025  0.325 0.2 0  0.325 0.2 0.025  0.35 0.2 0  0.35 0.2 0.025  0.375 0.2 0  0.375 0.2 0.025  0.4 0.2 0  0.4 0.2 0.025  0.425 0.2 0  0.425 0.2 0.025  0.45 0.2 0  0.45 0.2 0.025  0.475 0.2 0  0.475 0.2 0.025  0.5 0.2 0  0.5 0.2 0.025  0.525 0.2 0  0.525 0.2 0.025  0.55 0.2 0  0.55 0.2 0.025  0.1 0.225 0.025  0.125 0.225 0  0.125 0.225 0.025  0.15 0.225 0  0.15 0.225 0.025  0.175 0.225 0  0.175 0.225 0.025  0.2 0.225 0  0.2 0.225 0.025  0.225 0.225 0  0.225 0.225 0.025  0.25 0.225 0  0.25 0.225 0.025  0.275 0.225 0  0.275 0.225 0.025  0.3 0.225 0  0.3 0.225 0.025  0.325 0.225 0  0.325 0.225 0.025  0.35 0.225 0  0.35 0.225 0.025  0.375 0.225 0  0.375 0.225 0.025  0.4 0.225 0  0.4 0.225 0.025  0.425 0.225 0  0.425 0.225 0.025  0.45 0.225 0  0.45 0.225 0.025  0.475 0.225 0  0.475 0.225 0.025  0.5 0.225 0  0.5 0.225 0.025  0.525 0.225 0  0.525 0.225 0.025  0.55 0.225 0  0.55 0.225 0.025  0.575 0.225 0  0.575 0.225 0.025  0.15 0.25 0  0.15 0.25 0.025  0.175 0.25 0  0.175 0.25 0.025  0.2 0.25 0  0.2 0.25 0.025  0.225 0.25 0  0.225 0.25 0.025  0.25 0.25 0  0.25 0.25 0.025  0.275 0.25 0  0.275 0.25 0.025  0.3 0.25 0  0.3 0.25 0.025  0.325 0.25 0  0.325 0.25 0.025  0.35 0.25 0  0.35 0.25 0.025  0.375 0.25 0  0.375 0.25 0.025  0.4 0.25 0  0.4 0.25 0.025  0.425 0.25 0  0.425 0.25 0.025  0.45 0.25 0  0.45 0.25 0.025  0.475 0.25 0  0.475 0.25 0.025  0.5 0.25 0  0.5 0.25 0.025  0.525 0.25 0  0.525 0.25 0.025  0.55 0.25 0  0.55 0.25 0.025  0.575 0.25 0  0.575 0.25 0.025  0.6 0.25 0  0.6 0.25 0.025  0.175 0.275 0  0.175 0.275 0.025  0.2 0.275 0  0.2 0.275 0.025  0.225 0.275 0  0.225 0.275 0.025  0.25 0.275 0  0.25 0.275 0.025  0.275 0.275 0  0.275 0.275 0.025  0.3 0.275 0  0.3 0.275 0.025  0.325 0.275 0  0.325 0.275 0.025  0.35 0.275 0  0.35 0.275 0.025  0.375 0.275 0  0.375 0.275 0.025  0.4 0.275 0  0.4 0.275 0.025  0.425 0.275 0  0.425 0.275 0.025  0.45 0.275 0  0.45 0.275 0.025  0.475 0.275 0  0.475 0.275 0.025  0.5 0.275 0  0.5 0.275 0.025  0.525 0.275 0  0.525 0.275 0.025  0.55 0.275 0  0.55 0.275 0.025  0.575 0.275 0  0.575 0.275 0.025  0.6 0.275 0  0.6 0.275 0.025  0.2 0.3 0  0.2 0.3 0.025  0.225 0.3 0  0.225 0.3 0.025  0.25 0.3 0  0.25 0.3 0.025  0.275 0.3 0  0.275 0.3 0.025  0.3 0.3 0  0.3 0.3 0.025  0.325 0.3 0  0.325 0.3 0.025  0.35 0.3 0  0.35 0.3 0.025  0.375 0.3 0  0.375 0.3 0.025  0.4 0.3 0  0.4 0.3 0.025  0.425 0.3 0  0.425 0.3 0.025  0.45 0.3 0  0.45 0.3 0.025  0.475 0.3 0  0.475 0.3 0.025  0.5 0.3 0  0.5 0.3 0.025  0.525 0.3 0  0.525 0.3 0.025  0.55 0.3 0  0.55 0.3 0.025  0.575 0.3 0  0.575 0.3 0.025  0.6 0.3 0  0.6 0.3 0.025  0.225 0.325 0  0.225 0.325 0.025  0.25 0.325 0  0.25 0.325 0.025  0.275 0.325 0  0.275 0.325 0.025  0.3 0.325 0  0.3 0.325 0.025  0.325 0.325 0  0.325 0.325 0.025  0.35 0.325 0  0.35 0.325 0.025  0.375 0.325 0  0.375 0.325 0.025  0.4 0.325 0  0.4 0.325 0.025  0.425 0.325 0  0.425 0.325 0.025  0.45 0.325 0  0.45 0.325 0.025  0.475 0.325 0  0.475 0.325 0.025  0.5 0.325 0  0.5 0.325 0.025  0.525 0.325 0  0.525 0.325 0.025  0.55 0.325 0  0.55 0.325 0.025  0.575 0.325 0  0.575 0.325 0.025  0.6 0.325 0  0.6 0.325 0.025  0.625 0.325 0  0.625 0.325 0.025  0.25 0.35 0  0.25 0.35 0.025  0.275 0.35 0  0.275 0.35 0.025  0.3 0.35 0  0.3 0.35 0.025  0.325 0.35 0  0.325 0.35 0.025  0.35 0.35 0  0.35 0.35 0.025  0.375 0.35 0  0.375 0.35 0.025  0.4 0.35 0  0.4 0.35 0.025  0.425 0.35 0  0.425 0.35 0.025  0.45 0.35 0  0.45 0.35 0.025  0.475 0.35 0  0.475 0.35 0.025  0.5 0.35 0  0.5 0.35 0.025  0.525 0.35 0  0.525 0.35 0.025  0.55 0.35 0  0.55 0.35 0.025  0.575 0.35 0  0.575 0.35 0.025  0.6 0.35 0  0.6 0.35 0.025  0.625 0.35 0  0.625 0.35 0.025  0.275 0.375 0  0.275 0.375 0.025  0.3 0.375 0  0.3 0.375 0.025  0.325 0.375 0  0.325 0.375 0.025  0.35 0.375 0  0.35 0.375 0.025  0.375 0.375 0  0.375 0.375 0.025  0.4 0.375 0  0.4 0.375 0.025  0.425 0.375 0  0.425 0.375 0.025  0.45 0.375 0  0.45 0.375 0.025  0.475 0.375 0  0.475 0.375 0.025  0.5 0.375 0  0.5 0.375 0.025  0.525 0.375 0  0.525 0.375 0.025  0.55 0.375 0  0.55 0.375 0.025  0.575 0.375 0  0.575 0.375 0.025  0.6 0.375 0  0.6 0.375 0.025  0.625 0.375 0  0.625 0.375 0.025  0.65 0.375 0  0.65 0.375 0.025  0.3 0.4 0.025  0.325 0.4 0  0.325 0.4 0.025  0.35 0.4 0  0.
[...]
<PointData  Vectors="f_123"> 
<DataArray  type="Float64"  Name="f_123"  NumberOfComponents="3" format="ascii">-1.0027420038842047e+01 5.3444746327867419e-05 5.3444746509340833e-05  -1.0025805820457785e+01 -3.6362849438868446e-04 -3.6362849412958497e-04  -1.0026170000910891e+01 -8.9811202493465358e-04 -5.0303265210796002e-04  -1.0028269558013701e+01 -9.9795563671397410e-04 -9.9795563678036089e-04  -1.0026170000910760e+01 -5.0303265232436840e-04 -8.9811202512909581e-04  -1.0028185344483555e+01 3.3036672747065812e-05 -1.3847144227267065e-05  -1.0028185344483546e+01 -1.3847144076364962e-05 3.3036672847573800e-05  -1.0029033042979203e+01 -5.5900551231976890e-05 -5.5900551286477436e-05  -1.0023382969767885e+01 -5.2136254144416049e-04 -5.2136254146218665e-04  -1.0023604255251064e+01 -1.4107196146517155e-03 -5.8121368976152428e-04  -1.0026450002230956e+01 -1.4385580481801037e-03 -1.4385580481903531e-03  -1.0023604255251335e+01 -5.8121368989708284e-04 -1.4107196145835472e-03  -1.0020324497722365e+01 -6.0413579691714534e-04 -6.0413579710111851e-04  -1.0020442664226032e+01 -1.7050376563824362e-03 -6.2501272788595744e-04  -1.0023736539489059e+01 -1.6771460107083663e-03 -1.6771460108810296e-03  -1.0020442664225842e+01 -6.2501272781367444e-04 -1.7050376561858036e-03  -1.0016923687883045e+01 -6.4553707550779387e-04 -6.4553707534688602e-04  -1.0016978489309746e+01 -1.8603354271405962e-03 -6.4015467474805440e-04  -1.0020604709537256e+01 -1.7879378010555174e-03 -1.7879378008705843e-03  -1.0016978489309826e+01 -6.4015467489621886e-04 -1.8603354270664836e-03  -1.0013369829169536e+01 -6.5958617095251699e-04 -6.5958617102823453e-04  -1.0013382977452615e+01 -1.9237676751449381e-03 -6.3703926248637221e-04  -1.0017258271418008e+01 -1.8220470734856410e-03 -1.8220470736253064e-03  -1.0013382977452673e+01 -6.3703926247776462e-04 -1.9237676752046095e-03  -1.0009788952035869e+01 -6.5473911276119632e-04 -6.5473911265839931e-04  -1.0009772805098912e+01 -1.9240006747844722e-03 -6.2125065182518048e-04  -1.0013842539100200e+01 -1.8041593840248153e-03 -1.8041593841142394e-03  -1.0009772805098704e+01 -6.2125065194581401e-04 -1.9240006748013300e-03  -1.0006270390805637e+01 -6.3629318270447190e-04 -6.3629318241431403e-04  -1.0006233036542927e+01 -1.8790307963458194e-03 -5.9612542961611013e-04  -1.0010458839212534e+01 -1.7493216113857574e-03 -1.7493216112917940e-03  -1.0006233036542937e+01 -5.9612542989938538e-04 -1.8790307963257593e-03  -1.0002879259264009e+01 -6.0784465834937346e-04 -6.0784465834605504e-04  -1.0002826285677628e+01 -1.8010197889230528e-03 -5.6403837373190349e-04  -1.0007179694009746e+01 -1.6676076030616330e-03 -1.6676076029820601e-03  -1.0002826285677711e+01 -5.6403837375678517e-04 -1.8010197887926786e-03  -9.9996636883406378e+00 -5.7196525330084061e-04 -5.7196525345086144e-04  -9.9995991085694520e+00 -1.6985586867342361e-03 -5.2674754041897220e-04  -1.0004058163431671e+01 -1.5660902715280585e-03 -1.5660902714228783e-03  -9.9995991085696030e+00 -5.2674754027087648e-04 -1.6985586866609204e-03  -9.9966595064501327e+00 -5.3054636927884721e-04 -5.3054636939471177e-04  -9.9965862792911437e+00 -1.5779025723204397e-03 -4.8557733525876704e-04  -1.0001133483219606e+01 -1.4499101731473094e-03 -1.4499101732072120e-03  -9.9965862792911047e+00 -4.8557733522070699e-04 -1.5779025723093995e-03  -9.9938934203351870e+00 -4.8500358228612987e-04 -4.8500358237225087e-04  -9.9938137618475480e+00 -1.4436987403808603e-03 -4.4153554638156809e-04  -9.9984347901704460e+00 -1.3228824290222906e-03 -1.3228824290722424e-03  -9.9938137618475089e+00 -4.4153554636493746e-04 -1.4436987403122316e-03  -9.9913852789383775e+00 -4.3640669527325571e-04 -4.3640669527083366e-04  -9.9913008629786955e+00 -1.2994419882660184e-03 -3.9539104990047593e-04  -9.9959837115610846e+00 -1.1878709351506175e-03 -1.1878709352054239e-03  -9.9913008629787079e+00 -3.9539104997130453e-04 -1.2994419882364041e-03  -9.9891497396420199e+00 -3.8556713535195330e-04 -3.8556713537232930e-04  -9.9890618341671615e+00 -1.1477759464338080e-03 -3.4772877839706539e-04  -9.9937962310214896e+00 -1.0470352511475624e-03 -1.0470352512234409e-03  -9.9890618341670887e+00 -3.4772877838996127e-04 -1.1477759464194768e-03  -9.9871975234750323e+00 -3.3309958787095103e-04 -3.3309958777844072e-04  -9.9871070875283880e+00 -9.9070242006934345e-04 -2.9899031222047263e-04  -9.9918840711419392e+00 -9.0200215750487313e-04 -9.0200215742487723e-04  -9.9871070875283809e+00 -2.9899031227190919e-04 -9.9070242006296140e-04  -9.9855363749923374e+00 -2.7946728687102681e-04 -2.7946728689816108e-04  -9.9854441306216870e+00 -8.2973318030895768e-04 -2.4950490779622963e-04  -9.9902557372397851e+00 -7.5399040196025800e-04 -7.5399040189006524e-04  -9.9854441306217439e+00 -2.4950490776441198e-04 -8.2973318027223359e-04  -9.9841718014061946e+00 -2.2501657367037434e-04 -2.2501657381009436e-04  -9.9840782890764697e+00 -6.6600445400664054e-04 -1.9951399886004268e-04  -9.9889173130184385e+00 -6.0390520560456068e-04 -6.0390520558871008e-04  -9.9840782890765443e+00 -1.9951399876748808e-04 -6.6600445393391074e-04  -9.9831076404902443e+00 -1.7000422479437630e-04 -1.7000422487851224e-04  -9.9830132633942146e+00 -5.0036659555044384e-04 -1.4919115720773838e-04  -9.9878730671325719e+00 -4.5241266559839906e-04 -4.5241266566664026e-04  -9.9830132633941595e+00 -1.4919115717574382e-04 -5.0036659550792067e-04  -9.9823464907999711e+00 -1.1461984333981447e-04 -1.1461984334230728e-04  -9.9822515516346950e+00 -3.3345698956139587e-04 -9.8658873822430216e-05  -9.9871259099318532e+00 -3.0000057650974725e-04 -3.0000057656797232e-04  -9.9822515516347163e+00 -9.8658873816653451e-05 -3.3345698959973499e-04  -9.9818900271099551e+00 -5.9004877956959797e-05 -5.9004878002495611e-05  -9.9817947597911498e+00 -1.6576161720405707e-04 -4.8003127107370332e-05  -9.9866777268138911e+00 -1.4703006918039349e-04 -1.4703006925914625e-04  -9.9817947597911338e+00 -4.8003127061943962e-05 -1.6576161730076527e-04  -9.9817392165125920e+00 -3.2693913701994490e-06 -3.2693914762627860e-06  -9.9816438146402078e+00 2.3308521694397880e-06 2.7135375403217583e-06  -9.9865296058213477e+00 6.2187979271963535e-06 6.2187978487100223e-06  -9.9816438146402522e+00 2.7135376418881183e-06 2.3308521064241802e-06  -1.0027052911958064e+01 -1.3014501626336097e-03 -6.7544296912878000e-04  -1.0030140220399007e+01 -1.4996501120800401e-03 -1.3007132136197577e-03  -1.0029577411509340e+01 -3.8653754288434243e-06 3.5881897045279770e-05  -1.0030777676823485e+01 -7.0105221134567762e-06 -7.4796489122243122e-05  -1.0024165511594394e+01 -2.1983478450119643e-03 -7.3197882267531350e-04  -1.0028554787395345e+01 -2.4483177428395743e-03 -1.7660032915961809e-03  -1.0020767970415010e+01 -2.7680667028065885e-03 -7.5381137840053623e-04  -1.0026060253889254e+01 -3.0071631491096176e-03 -1.9747383968132175e-03  -1.0017145921622708e+01 -3.0986183398601930e-03 -7.4456518403544626e-04  -1.0023125297288191e+01 -3.3115282436781655e-03 -2.0383682082063172e-03  -1.0013441130065964e+01 -3.2597913932984500e-03 -7.2081195096455452e-04  -1.0019941750495216e+01 -3.4458914595208562e-03 -2.0300968711024149e-03  -1.0009752819267668e+01 -3.2994862940160241e-03 -6.8846989936429271e-04  -1.0016662970836109e+01 -3.4609999104468960e-03 -1.9758744149142890e-03  -1.0006156062755286e+01 -3.2504925920218324e-03 -6.5014872841355335e-04  -1.0013395299586394e+01 -3.3903370681214401e-03 -1.8907112401180307e-03  -1.0002707151570785e+01 -3.1358996513737589e-03 -6.0755142767569055e-04  -1.0010215161743082e+01 -3.2568590979886788e-03 -1.7838836629947049e-03  -9.9994485374397897e+00 -2.9723543455829069e-03 -5.6186711509708623e-04  -1.0007178577765835e+01 -3.0768470272588564e-03 -1.6615843359388202e-03  -9.9964122001632880e+00 -2.7721142949673348e-03 -5.1397264027179112e-04  -1.0004326979412085e+01 -2.8621781412945697e-03 -1.5281735189390981e-03  -9.9936221235649576e+00 -2.5443491543661405e-03 -4.6452833248212340e-04  -1.0001691148148344e+01 -2.6216801280493818e-03 -1.3868107649582940e-03  -9.9910961673576040e+00 -2.2959907032804629e-03 -4.1403174050924321e-04  -9.9992939553656264e+00 -2.3619916478248514e-03 -1.2398186232231430e-03  -9.9888475008320334e+00 -2.0323100047986357e-03 -3.6285343088172277e-04  -9.9971523339159596e+00 -2.0881357932396824e-03 -1.0889102479556218e-03  -9.9868857140636820e+00 -1.7573239081571574e-03 -3.1126306867736354e-04  -9.9952787348581058e+00 -1.8039191315023138e-03 -9.3534186203157634e-04  -9.9852176853572061e+00 -1.4740918307635609e-03 -2.5944963029443321e-04  -9.9936822232841696e+00 -1.5122209198051863e-03 -7.8002111657058174e-04  -9.9838482593079494e+00 -1.1849401954268106e-03 -2.0753779786401725e-04  -9.9923693107402620e+00 -1.2152108955830808e-03 -6.2358812818559366e-04  -9.9827807735664429e+00 -8.9163821453761385e-04 -1.5560172728857252e-04  -9.9913445878147549e+00 -9.1451948174579498e-04 -4.6647890099656646e-04  -9.9820174611315000e+00 -5.9554058596395214e-04 -1.0367697059054357e-04  -9.9906111992026911e+00 -6.1137583934782805e-04 -3.0897710711484167e-04  -9.9815597470352984e+00 -2.9770774232534900e-04 -5.1771093422812397e-05  -9.9901711896786640e+00 -3.0672420396898301e-04 -1.5125811870632378e-04  -9.9814084524238940e+00 9.8872228286073042e-07 1.2660131627282689e-07  -9.9900257399222170e+00 -1.3259259820423420e-06 6.5720093652730605e-06  -9.9815639145571406e+00 2.9976964796946343e-04 5.2035918912820868e-05  -9.9901753042830901e+00 3.0414717157948939e-04 1.6444058973875720e-04  -1.0028285089829900e+01 -1.5534934696231251e-03 -8.3753122567933392e-04  -1.0032033209128057e+01 -1.7348023984776328e-03 -1.6117683868442001e-03  -1.0031235699102522e+01 -2.6966984547552066e-06 3.8165930545512009e-05  -1.0032707820937148e+01 -6.5089319286704929e-06 -9.3097112237090546e-05  -1.0025024729509646e+01 -2.7326291219454675e-03 -9.0161566911209877e-04  -1.0030462537721373e+01 -2.9746449714851239e-03 -2.1604710085649675e-03  -1.0021313116843704e+01 -3.5452029907536804e-03 -9.1703456416547741e-04  -1.0027999486920036e+01 -3.7927770243322027e-03 -2.3745538610504963e-03  -1.0017456635810131e+01 -4.0573581290757697e-03 -8.9154339093808666e-04  -1.0025123404020018e+01 -4.2909012873853219e-03 -2.4087167850451690e-03  -1.0013579053454093e+01 -4.3386851835011007e-03 -8.5015137044117952e-04  -1.0022005972994918e+01 -4.5513868971376369e-03 -2.3634368833894762e-03  -1.0009762811622679e+01 -4.4453233805439142e-03 -8.0121894404643675e-04  -1.0018795204075746e+01 -4.6356035493360908e-03 -2.2713085044934883e-03  -1.0006070669928407e+01 -4.4200120123278680e-03 -7.4796253203997080e-04  -1.0015593559047685e+01 -4.5885788433379119e-03 -2.1504513898440076e-03  -1.0002550133312210e+01 -4.2948060770114571e-03 -6.9216688918586310e-04  -1.0012475665375749e+01 -4.4431859867721879e-03 -2.0110303391152984e-03  -9.9992375045576747e+00 -4.0937741146581984e-03 -6.3487091626363013e-04  -1.0009496722388203e+01 -4.2236963932483712e-03 -1.8593138816559870e-03  -9.9961603779758779e+00 -3.8351213062058384e-03 -5.7674462547230754e-04  -1.0006697794411053e+01 -3.9482652102498135e-03 -1.6994337525370062e-03  -9.9933395431709169e+00 -3.5327223191452452e-03 -5.1824125981075571e-04  -1.0004109524608287e+01 -3.6306151379431871e-03 -1.5342156921709707e-03  -9.9907904869722906e+00 -3.1972136662046704e-03 -4.5966963138431024e-04  -1.0001754753934753e+01 -3.2811979981854536e-03 -1.3656293905801211e-03  -9.9885245866171761e+00 -2.8367794430147388e-03 -4.0123418488607963e-04  -9.9996504328095615e+00 -2.9080101431684493e-03 -1.1950498098214229e-03  -9.9865500632145423e+00 -2.4577268856693065e-03 -3.4305977586542149e-04  -9.9978090483353697e+00 -2.5171798344783784e-03 -1.0234209083409716e-03  -9.9848727439053064e+00 -2.0649180939329706e-03 -2.8520881628781139e-04  -9.9962397056940571e+00 -2.1134027225338404e-03 -8.5136560233508218e-04  -9.9834966685161319e+00 -1.6621026594539144e-03 -2.2769427880742817e-04  -9.9949489537791774e+00 -1.7002745945274204e-03 -6.7926436458679040e-04  -9.9824245673590344e+00 -1.2521815274256366e-03 -1.7049026910549427e-04  -9.9939414148191243e+00 -1.2805537949745266e-03 -5.0731469245099035e-04  -9.9816582298951406e+00 -8.3742303687345102e-04 -1.1354108582149106e-04  -9.9932202583369669e+00 -8.5637521810467325e-04 -3.3557851604785436e-04  -9.9811987786734200e+00 -4.1964600454263631e-04 -5.6769295770933473e-05  -9.9927875468674507e+00 -4.2943116468912717e-04 -1.6402188579538751e-04  -9.9810468587833689e+00 -3.8081873311237226e-07 -8.3166772998109810e-08  -9.9926444718593146e+00 -1.1302000051608612e-06 7.4502149132460822e-06  -9.9812027496799764e+00 4.1898293015678480e-04 5.6616303262904583e-05  -9.9927914915922518e+00 4.2725740667090925e-04 1.7896191365601014e-04  -1.0029737552947799e+01 -1.6865879884416111e-03 -9.7374634318408862e-04  -1.0033982188899932e+01 -1.8416434321543509e-03 -1.8879373059165192e-03  -1.0033027965118759e+01 -3.1753332247051466e-06 4.2167677547094484e-05  -1.0034727602423169e+01 -4.5399316914682155e-06 -1.0850275742329901e-04  -1.0026110758738941e+01 -3.0429076368200338e-03 -1.0591390913697952e-03  -1.0032321938035039e+01 -3.2637996794869658e-03 -2.5371812820643262e-03  -1.0022053145067140e+01 -4.0366839449773500e-03 -1.0785688297732432e-03  -1.0029776802852297e+01 -4.2765545172226953e-03 -2.7801534342590107e-03  -1.0017913674785426e+01 -4.7052185141479887e-03 -1.0446541671962728e-03  -1.0026857198669200e+01 -4.9424041577618054e-03 -2.8027737268132027e-03  -1.0013814127543794e+01 -5.1052894374247759e-03 -9.9036409922665042e-04  -1.0023722536107490e+01 -5.3294088584722238e-03 -2.7308180286810730e-03  -1.0009826357080133e+01 -5.2913335010329491e-03 -9.2733779787976354e-04  -1.0020513974925439e+01 -5.4978512584056560e-03 -2.6059104958427084e-03  -1.0006002368749817e+01 -5.3094638743106477e-03 -8.6017589950544064e-04  -1.0017327204908867e+01 -5.4968634051096059e-03 -2.4510375197423100e-03  -1.0002380603504367e+01 -5.1968221698786886e-03 -7.9127248264720170e-04  -1.0014232003060675e+01 -5.3650639984653215e-03 -2.2785148257846530e-03  -9.9989903076934024e+00 -4.9827305196138054e-03 -7.2186395970669063e-04  -1.0011280149069309e+01 -5.1324802079002370e-03 -2.0955211486536249e-03  -9.9958536803613800e+00 -4.6901764107629956e-03 -6.5263672186206703e-04  -1.0008510297185863e+01 -4.8223989983559512e-03 -1.9064920355327736e-03  -9.9929873946850041e+00 -4.3371473732688078e-03 -5.8397881333966729e-04  -1.0005951382645756e+01 -4.4528943024130640e-03 -1.7142558410508527e-03  -9.9904037812096025e+00 -3.9377169634349160e-03 -5.1610048412126870e-04  -1.0003625015901678e+01 -4.0380161596304653e-03 -1.5206412263242999e-03  -9.9881117812291098e+00 -3.5028975109402272e-03 -4.4909726105227786e-04  -1.0001547246415395e+01 -3.5886977351790219e-03 -1.3268170356409172e-03  -9.9861177270684962e+00 -3.0413045546341783e-03 -3.8298514895187435e-04  -9.9997298925647389e+00 -3.1134485455455675e-03 -1.1334956162092963e-03  -9.9844259806082576e+00 -2.5596780476678468e-03 -3.1772210713378637e-04  -9.9981815588460545e+00 -2.6188908302279697e-03 -9.4106230244371254e-04  -9.9830394519675689e+00 -2.0632973751800632e-03 -2.5322238759100681e-04  -9.9969084189021995e+00 -2.1101823559210283e-03 -7.4966304560103501e-04  -9.9819600148510528e+00 -1.5563187125547167e-03 -1.8936698832316477e-04  -9.9959148166622409e+00 -1.5913575436100312e-03 -5.5926739995563882e-04  -9.9811888312225978e+00 -1.0420562761161479e-03 -1.2601190505961591e-04  -9.9952037212385001e+00 -1.0656102856300997e-03 -3.6971654442533258e-04  -9.9807265949564368e+00 -5.2322382393414234e-04 -6.2995090783922130e-05  -9.9947770600608123e+00 -5.3553580624962768e-04 -1.8076206687489527e-04  -9.9805737015772440e+00 -2.1491144309895513e-06 -1.4263970845460482e-07  -9.9946359468617629e+00 -3.3448276901694007e-06 7.9008989562602416e-06  -9.9807303489992787e+00 5.1902839949796980e-04 6.2725483853531995e-05  -9.9947808152672852e+00 5.2893936799373225e-04 1.9660375188909734e-04  -1.0031310499221322e+01 -1.7406536851964775e-03 -1.0875077471451354e-03  -1.0035943479242171e+01 -1.8731986719016556e-03 -2.1280719212630260e-03  -1.0034872611864063e+01 -3.4518642549885828e-06 4.7022307275794108e-05  -1.0036760617680459e+01 -3.1381846064663155e-06 -1.2134565759139288e-04  -1.0027344996007406e+01 -3.1947437125408843e-03 -1.1987540056460578e-03  -1.0034154413775871e+01 -3.3912102642729303e-03 -2.8795739367528821e-03  -1.0022940757989671e+01 -4.3085193486563523e-03 -1.2279266267617248e-03  -1.0031470868927508e+01 -4.5300150226845939e-03 -3.1638792273827763e-03  -1.0018496903001541e+01 -5.0958375792897635e-03 -1.1913772303648459e-03  -1.0028442930360070e+01 -5.3220007132825948e-03 -3.1886614370466308e-03  -1.0014144970612259e+01 -5.5978567481128312e-03 -1.1286181765071679e-03  -1.0025229565942443e+01 -5.8173792132879482e-03 -3.1005531574521145e-03  -1.0009953726173576e+01 -5.8617594400877208e-03 -1.0545528885265044e-03  -1.0021969207410523e+01 -6.0685986466958346e-03 -2.9501100624602004e-03  -1.0005968171819100e+01 -5.9319197610890996e-03 -9.7544284917995419e-04  -1.0018751930261482e+01 -6.1230791259130925e-03 -2.7657022117825846e-03  -1.0002219192652747e+01 -5.8467640968844613e-03 -8.9457539006056804e-04  -1.0015642189099852e+01 -6.0209862657042736e-03 -2.5624991903082065e-03  -9.9987292980333162e+00 -5.6382790816990377e-03 -8.1362202049311346e-04  -1.0012687305654278e+01 -5.7952931673837579e-03 -2.3491846101074579e-03  -9.9955150664367309e+00 -5.3325544122744305e-03 -7.3346183572413804e-04  -1.0009922385243209e+01 -5.4726279603670444e-03 -2.1309445197795658e-03  -9.9925886170246869e+00 -4.9506357923048295e-03 -6.5454312311323754e-04  -1.0007373600719610e+01 -5.0743100952989357e-03 -1.9109308099593842e-03  -9.9899586362059658e+00 -4.5093919743633424e-03 -5.7706515095795401e-04  -1.0005060424553893e+01 -4.6173256253585031e-03 -1.6910564683625196e-03  -9.9876311650549852e+00 -4.0222892984040680e-03 -5.0107509341077469e-04  -1.0002997252224237e+01 -4.1151654575078958e-03 -1.4724405307712264e-03  -9.9856102364417207e+00 -3.5000496918972993e-03 -4.2652176456356997e-04  -1.0001194621631159e+01 -3.5785212003311352e-03 -1.2556712657164539e-03  -9.9838983992506503e+00 -2.9511998116166591e-03 -3.5328719903406867e-04  -9.9996601474867575e+00 -3.0158568372644096e-03 -1.0409697889106964e-03  -9.9824971492621764e+00 -2.3825288864228978e-03 -2.8120636468945376e-04  -9.9983992437309119e+00 -2.4338800035474941e-03 -8.2829706253731005e-04  -9.9814072786699981e+00 -1.7994740579617145e-03 -2.1008032477834514e-04  -9.9974156809215913e+00 -1.8379353332931398e-03 -6.1742771048693462e-04  -9.9806291525149913e+00 -1.2064502254720132e-03 -1.3968568876659274e-04  -9.9967120100360987e+00 -1.2323390485519258e-03 -4.0800388649007811e-04  -9.9801629181701106e+00 -6.0713891295913528e-04 -6.9781912597994774e-05  -9.9962898741086441e+00 -6.2067061452962817e-04 -1.9957699722207974e-04  -9.9800086524065836e+00 -4.7484450488795125e-06 -1.1734805139115416e-07  -9.9961502222142009e+00 -6.0345415831953861e-06 8.3578885795776428e-06  -9.9801664492297313e+00 5.9774401054229554e-04 6.9565422691163405e-05  -9.9962934352117507e+00 6.0869659751458440e-04 2.1633173819505017e-04  -1.0032931900699461e+01 -1.7395451115259657e-03 -1.1831621029379416e-03  -1.0037879378184982e+01 -1.8531581997870974e-03 -2.3357001269646497e-03  -1.0036712825840290e+01 -3.7268388612363221e-06 5.2038724440507371e-05  -1.0038757231976009e+01 -2.2287557806530381e-06 -1.3212256553728980e-04  -1.0028661497205471e+01 -3.2309698410736875e-03 -1.3208307611053932e-03  -1.0035949403074190e+01 -3.4038143000228844e-03 -3.1841780836308017e-03  -1.0023926889567775e+01 -4.4111132534461021e-03 -1.3625504863697400e-03  -1.0033103337921338e+01 -4.6111359752593105e-03 -3.5149595020036221e-03  -1.0019176558092235e+01 -5.2776245660426215e-03 -1.3272249460498130e-03  -1.0029930447959833e+01 -5.4868356415276077e-03 -3.5508965128483371e-03  -1.0014558405785801e+01 -5.8574235108665891e-03 -1.2595466793533445e-03  -1.0026597774736794e+01 -6.0648249657423974e-03 -3.4551769627997014e-03  -1.0010144215078512e+01 -6.1884688618382899e-03 -1.1773014757256175e-03