<?xml version="1.0"?>
<VTKFile type="UnstructuredGrid"  version="0.1"  >
<UnstructuredGrid>
<Piece  NumberOfPoints="7611" NumberOfCells="38339">
<Points>
<DataArray  type="Float64"  NumberOfComponents="3"  format="ascii">0 0.2 0.25  0 0.225 0.25  0 0.225 0.275  0.025 0.225 0.275  0.025 0.25 0.275  0 0.25 0.275  0.025 0.25 0.3  0 0.25 0.3  0.05 0.25 0.3  0.025 0.275 0.3  0 0.275 0.3  0 0.275 0.275  0.05 0.275 0.3  0.025 0.3 0.3  0 0.3 0.3  0.025 0.275 0.325  0.025 0.25 0.325  0 0.25 0.325  0 0.275 0.325  0.05 0.275 0.325  0.05 0.25 0.325  0.075 0.275 0.325  0.025 0.3 0.325  0 0.3 0.325  0.05 0.3 0.325  0.075 0.3 0.325  0.025 0.325 0.325  0 0.325 0.325  0.05 0.325 0.325  0.025 0.275 0.35  0.025 0.25 0.35  0 0.25 0.35  0 0.275 0.35  0.05 0.275 0.35  0.05 0.25 0.35  0.075 0.275 0.35  0.15 0.25 0.325  0.15 0.25 0.35  0.175 0.25 0.35  0.175 0.275 0.35  0.15 0.275 0.35  0.025 0.3 0.35  0 0.3 0.35  0.05 0.3 0.35  0.075 0.3 0.35  0.1 0.275 0.325  0.1 0.3 0.325  0.1 0.3 0.35  0.1 0.275 0.35  0.125 0.275 0.325  0.125 0.3 0.325  0.125 0.3 0.35  0.125 0.275 0.35  0.15 0.3 0.35  0.025 0.325 0.35  0 0.325 0.35  0.05 0.325 0.35  0.075 0.325 0.325  0.075 0.325 0.35  0.1 0.325 0.35  0.125 0.325 0.35  0.15 0.325 0.35  0.025 0.35 0.325  0.025 0.35 0.35  0 0.35 0.325  0 0.35 0.35  0.05 0.35 0.325  0.05 0.35 0.35  0.075 0.35 0.35  0.1 0.35 0.35  0.025 0.375 0.35  0 0.375 0.35  0 0.375 0.325  0.05 0.375 0.35  0.075 0.375 0.35  0.025 0.4 0.35  0 0.4 0.35  0 0.4 0.325  0.025 0.425 0.35  0 0.425 0.35  0 0.425 0.325  0.025 0.45 0.35  0 0.45 0.35  0.025 0.275 0.375  0.025 0.25 0.375  0 0.25 0.375  0 0.275 0.375  0.05 0.275 0.375  0.075 0.275 0.375  0.175 0.275 0.375  0.15 0.275 0.375  0.2 0.275 0.35  0.2 0.275 0.375  0.275 0.25 0.35  0.3 0.25 0.35  0.3 0.25 0.375  0.3 0.275 0.375  0.275 0.25 0.375  0.275 0.275 0.375  0.275 0.275 0.35  0.325 0.25 0.375  0.325 0.275 0.375  0.025 0.3 0.375  0 0.3 0.375  0.05 0.3 0.375  0.075 0.3 0.375  0.1 0.3 0.375  0.1 0.275 0.375  0.125 0.3 0.375  0.125 0.275 0.375  0.15 0.3 0.375  0.175 0.3 0.35  0.175 0.3 0.375  0.2 0.3 0.35  0.2 0.3 0.375  0.225 0.275 0.35  0.225 0.3 0.35  0.225 0.3 0.375  0.225 0.275 0.375  0.25 0.275 0.35  0.25 0.3 0.35  0.25 0.3 0.375  0.25 0.275 0.375  0.275 0.3 0.35  0.275 0.3 0.375  0.3 0.3 0.375  0.025 0.325 0.375  0 0.325 0.375  0.05 0.325 0.375  0.075 0.325 0.375  0.1 0.325 0.375  0.125 0.325 0.375  0.15 0.325 0.375  0.175 0.325 0.375  0.2 0.325 0.375  0.225 0.325 0.375  0.25 0.325 0.375  0.275 0.325 0.375  0.3 0.325 0.375  0.025 0.35 0.375  0 0.35 0.375  0.05 0.35 0.375  0.075 0.35 0.375  0.1 0.35 0.375  0.125 0.35 0.35  0.125 0.35 0.375  0.15 0.35 0.35  0.15 0.35 0.375  0.175 0.35 0.375  0.025 0.375 0.375  0 0.375 0.375  0.05 0.375 0.375  0.075 0.375 0.375  0.1 0.375 0.35  0.1 0.375 0.375  0.125 0.375 0.375  0.15 0.375 0.375  0.175 0.375 0.375  0.025 0.4 0.375  0 0.4 0.375  0.05 0.4 0.35  0.05 0.4 0.375  0.075 0.4 0.35  0.075 0.4 0.375  0.1 0.4 0.375  0.125 0.4 0.375  0.025 0.425 0.375  0 0.425 0.375  0.05 0.425 0.375  0.075 0.425 0.375  0.1 0.425 0.375  0.025 0.45 0.375  0 0.45 0.375  0.05 0.45 0.375  0.025 0.475 0.375  0.05 0.475 0.375  0.025 0.275 0.4  0 0.275 0.4  0.05 0.275 0.4  0.25 0.25 0.375  0.275 0.275 0.4  0.275 0.25 0.4  0.25 0.25 0.4  0.25 0.275 0.4  0.3 0.275 0.4  0.3 0.25 0.4  0.325 0.275 0.4  0.325 0.25 0.4  0.35 0.275 0.4  0.025 0.3 0.4  0 0.3 0.4  0.05 0.3 0.4  0.075 0.3 0.4  0.075 0.275 0.4  0.1 0.3 0.4  0.1 0.275 0.4  0.125 0.3 0.4  0.125 0.275 0.4  0.15 0.3 0.4  0.15 0.275 0.4  0.175 0.3 0.4  0.175 0.275 0.4  0.2 0.3 0.4  0.2 0.275 0.4  0.225 0.3 0.4  0.225 0.275 0.4  0.25 0.3 0.4  0.275 0.3 0.4  0.3 0.3 0.4  0.325 0.3 0.4  0.35 0.3 0.4  0.025 0.325 0.4  0 0.325 0.4  0.05 0.325 0.4  0.075 0.325 0.4  0.1 0.325 0.4  0.125 0.325 0.4  0.15 0.325 0.4  0.175 0.325 0.4  0.2 0.325 0.4  0.225 0.325 0.4  0.25 0.325 0.4  0.275 0.325 0.4  0.3 0.325 0.4  0.325 0.325 0.4  0.025 0.35 0.4  0 0.35 0.4  0.05 0.35 0.4  0.075 0.35 0.4  0.1 0.35 0.4  0.125 0.35 0.4  0.15 0.35 0.4  0.175 0.35 0.4  0.2 0.35 0.375  0.2 0.35 0.4  0.225 0.35 0.4  0.25 0.35 0.4  0.275 0.35 0.4  0.3 0.35 0.4  0.325 0.35 0.4  0.025 0.375 0.4  0 0.375 0.4  0.05 0.375 0.4  0.075 0.375 0.4  0.1 0.375 0.4  0.125 0.375 0.4  0.15 0.375 0.4  0.175 0.375 0.4  0.2 0.375 0.4  0.225 0.375 0.4  0.025 0.4 0.4  0 0.4 0.4  0.05 0.4 0.4  0.075 0.4 0.4  0.1 0.4 0.4  0.125 0.4 0.4  0.15 0.4 0.375  0.15 0.4 0.4  0.175 0.4 0.4  0.2 0.4 0.4  0.025 0.425 0.4  0 0.425 0.4  0.05 0.425 0.4  0.075 0.425 0.4  0.1 0.425 0.4  0.125 0.425 0.4  0.15 0.425 0.4  0.175 0.425 0.4  0.025 0.45 0.4  0 0.45 0.4  0.05 0.45 0.4  0.075 0.45 0.375  0.075 0.45 0.4  0.1 0.45 0.4  0.125 0.45 0.4  0.025 0.475 0.4  0.05 0.475 0.4  0.075 0.475 0.375  0.075 0.475 0.4  0.1 0.475 0.4  0.075 0.5 0.4  0.1 0.5 0.4  0.275 0.275 0.425  0.275 0.25 0.425  0.3 0.275 0.425  0.3 0.25 0.425  0.325 0.275 0.425  0.325 0.25 0.425  0.35 0.275 0.425  0.025 0.3 0.425  0 0.3 0.425  0.05 0.3 0.425  0.075 0.3 0.425  0.075 0.275 0.425  0.1 0.3 0.425  0.1 0.275 0.425  0.125 0.3 0.425  0.125 0.275 0.425  0.15 0.3 0.425  0.15 0.275 0.425  0.175 0.3 0.425  0.175 0.275 0.425  0.2 0.3 0.425  0.2 0.275 0.425  0.225 0.3 0.425  0.225 0.275 0.425  0.25 0.3 0.425  0.25 0.275 0.425  0.275 0.3 0.425  0.3 0.3 0.425  0.325 0.3 0.425  0.35 0.3 0.425  0.375 0.3 0.425  0.025 0.325 0.425  0 0.325 0.425  0.05 0.325 0.425  0.075 0.325 0.425  0.1 0.325 0.425  0.125 0.325 0.425  0.15 0.325 0.425  0.175 0.325 0.425  0.2 0.325 0.425  0.225 0.325 0.425  0.25 0.325 0.425  0.275 0.325 0.425  0.3 0.325 0.425  0.325 0.325 0.425  0.35 0.325 0.4  0.35 0.325 0.425  0.375 0.325 0.425  0.025 0.35 0.425  0 0.35 0.425  0.05 0.35 0.425  0.075 0.35 0.425  0.1 0.35 0.425  0.125 0.35 0.425  0.15 0.35 0.425  0.175 0.35 0.425  0.2 0.35 0.425  0.225 0.35 0.425  0.25 0.35 0.425  0.275 0.35 0.425  0.3 0.35 0.425  0.325 0.35 0.425  0.35 0.35 0.4  0.35 0.35 0.425  0.375 0.35 0.425  0.025 0.375 0.425  0 0.375 0.425  0.05 0.375 0.425  0.075 0.375 0.425  0.1 0.375 0.425  0.125 0.375 0.425  0.15 0.375 0.425  0.175 0.375 0.425  0.2 0.375 0.425  0.225 0.375 0.425  0.25 0.375 0.4  0.25 0.375 0.425  0.275 0.375 0.4  0.275 0.375 0.425  0.3 0.375 0.4  0.3 0.375 0.425  0.325 0.375 0.425  0.35 0.375 0.425  0.375 0.375 0.425  0.025 0.4 0.425  0 0.4 0.425  0.05 0.4 0.425  0.075 0.4 0.425  0.1 0.4 0.425  0.125 0.4 0.425  0.15 0.4 0.425  0.175 0.4 0.425  0.2 0.4 0.425  0.225 0.4 0.4  0.225 0.4 0.425  0.25 0.4 0.4  0.25 0.4 0.425  0.275 0.4 0.425  0.3 0.4 0.425  0.325 0.4 0.425  0.025 0.425 0.425  0 0.425 0.425  0.05 0.425 0.425  0.075 0.425 0.425  0.1 0.425 0.425  0.125 0.425 0.425  0.15 0.425 0.425  0.175 0.425 0.425  0.2 0.425 0.4  0.2 0.425 0.425  0.225 0.425 0.4  0.225 0.425 0.425  0.25 0.425 0.425  0.275 0.425 0.425  0.025 0.45 0.425  0.05 0.45 0.425  0.075 0.45 0.425  0.1 0.45 0.425  0.125 0.45 0.425  0.15 0.45 0.4  0.15 0.45 0.425  0.175 0.45 0.4  0.175 0.45 0.425  0.2 0.45 0.425  0.225 0.45 0.425  0.25 0.45 0.425  0.025 0.475 0.425  0.05 0.475 0.425  0.075 0.475 0.425  0.1 0.475 0.425  0.125 0.475 0.4  0.125 0.475 0.425  0.15 0.475 0.4  0.15 0.475 0.425  0.175 0.475 0.4  0.175 0.475 0.425  0.2 0.475 0.425  0.075 0.5 0.425  0.1 0.5 0.425  0.125 0.5 0.425  0.15 0.5 0.425  0.175 0.5 0.425  0.2 0.5 0.425  0.3 0.275 0.45  0.3 0.25 0.45  0.275 0.275 0.45  0.325 0.275 0.45  0.325 0.25 0.45  0.35 0.275 0.45  0.1 0.3 0.45  0.125 0.3 0.45  0.15 0.3 0.45  0.175 0.3 0.45  0.175 0.275 0.45  0.2 0.3 0.45  0.2 0.275 0.45  0.225 0.3 0.45  0.225 0.275 0.45  0.25 0.3 0.45  0.25 0.275 0.45  0.275 0.3 0.45  0.3 0.3 0.45  0.325 0.3 0.45  0.35 0.3 0.45  0.375 0.3 0.45  0.025 0.325 0.45  0 0.3 0.45  0 0.325 0.45  0.05 0.325 0.45  0.075 0.325 0.45  0.075 0.3 0.45  0.1 0.325 0.45  0.125 0.325 0.45  0.15 0.325 0.45  0.175 0.325 0.45  0.2 0.325 0.45  0.225 0.325 0.45  0.25 0.325 0.45  0.275 0.325 0.45  0.3 0.325 0.45  0.325 0.325 0.45  0.35 0.325 0.45  0.375 0.325 0.45  0.4 0.325 0.45  0.025 0.35 0.45  0 0.35 0.45  0.05 0.35 0.45  0.075 0.35 0.45  0.1 0.35 0.45  0.125 0.35 0.45  0.15 0.35 0.45  0.175 0.35 0.45  0.2 0.35 0.45  0.225 0.35 0.45  0.25 0.35 0.45  0.275 0.35 0.45  0.3 0.35 0.45  0.325 0.35 0.45  0.35 0.35 0.45  0.375 0.35 0.45  0.4 0.325 0.425  0.4 0.35 0.425  0.4 0.35 0.45  0.425 0.35 0.45  0.025 0.375 0.45  0 0.375 0.45  0.05 0.375 0.45  0.075 0.375 0.45  0.1 0.375 0.45  0.125 0.375 0.45  0.15 0.375 0.45  0.175 0.375 0.45  0.2 0.375 0.45  0.225 0.375 0.45  0.25 0.375 0.45  0.275 0.375 0.45  0.3 0.375 0.45  0.325 0.375 0.45  0.35 0.375 0.45  0.375 0.375 0.45  0.4 0.375 0.425  0.4 0.375 0.45  0.425 0.375 0.45  0.025 0.4 0.45  0 0.4 0.45  0.05 0.4 0.45  0.075 0.4 0.45  0.1 0.4 0.45  0.125 0.4 0.45  0.15 0.4 0.45  0.175 0.4 0.45  0.2 0.4 0.45  0.225 0.4 0.45  0.25 0.4 0.45  0.275 0.4 0.45  0.3 0.4 0.45  0.325 0.4 0.45  0.35 0.4 0.425  0.35 0.4 0.45  0.375 0.4 0.425  0.375 0.4 0.45  0.4 0.4 0.45  0.425 0.4 0.45  0.025 0.425 0.45  0.05 0.425 0.45  0.075 0.425 0.45  0.1 0.425 0.45  0.125 0.425 0.45  0.15 0.425 0.45  0.175 0.425 0.45  0.2 0.425 0.45  0.225 0.425 0.45  0.25 0.425 0.45  0.275 0.425 0.45  0.3 0.425 0.45  0.325 0.425 0.425  0.325 0.425 0.45  0.35 0.425 0.425  0.35 0.425 0.45  0.375 0.425 0.425  0.375 0.425 0.45  0.4 0.425 0.45  0.025 0.45 0.45  0.05 0.45 0.45  0.075 0.45 0.45  0.1 0.45 0.45  0.125 0.45 0.45  0.15 0.45 0.45  0.175 0.45 0.45  0.2 0.45 0.45  0.225 0.45 0.45  0.25 0.45 0.45  0.275 0.45 0.45  0.3 0.45 0.45  0.35 0.45 0.45  0.375 0.45 0.45  0.4 0.45 0.45  0.05 0.475 0.45  0.075 0.475 0.45  0.1 0.475 0.45  0.125 0.475 0.45  0.15 0.475 0.45  0.175 0.475 0.45  0.2 0.475 0.45  0.225 0.475 0.425  0.225 0.475 0.45  0.25 0.475 0.45  0.275 0.475 0.45  0.075 0.5 0.45  0.1 0.5 0.45  0.125 0.5 0.45  0.15 0.5 0.45  0.175 0.5 0.45  0.2 0.5 0.45  0.225 0.5 0.45  0.25 0.5 0.45  0.125 0.525 0.45  0.15 0.525 0.425  0.15 0.525 0.45  0.125 0.525 0.425  0.175 0.525 0.425  0.175 0.525 0.45  0.2 0.525 0.45  0.225 0.525 0.45  0.15 0.55 0.425  0.15 0.55 0.45  0.175 0.55 0.425  0.175 0.55 0.45  0.2 0.55 0.45  0.175 0.575 0.45  0.2 0.575 0.45  0.3
[...]
<PointData  Vectors="f_123"> 
<DataArray  type="Float64"  Name="f_123"  NumberOfComponents="3" format="ascii">-1.0082134942035591e+01 2.4352690820940583e-07 4.0364321042663692e-07  -1.0086347129325558e+01 5.6472246827447663e-07 5.7050788163520248e-07  -1.0089575978191906e+01 6.6237646667777276e-07 5.9692128534848108e-07  -1.0094857313191666e+01 -4.1090037311093978e-03 -2.9770264749799475e-03  -1.0099284856256492e+01 -3.7291405125516627e-03 -3.1683355845791975e-03  -1.0093595278291017e+01 8.3780902297579811e-07 7.5138199644592127e-07  -1.0102618892887838e+01 -3.9026183073912210e-03 -2.8010359368939243e-03  -1.0096629790943988e+01 9.4357712538719844e-07 7.1229041026062017e-07  -1.0102317121321130e+01 -7.0373394998109748e-03 -5.0969669551465587e-03  -1.0106781333961605e+01 -3.5014333957439549e-03 -2.9573399628668000e-03  -1.0100398437044669e+01 1.0085825179251114e-06 8.5302238841693442e-07  -1.0097202553665991e+01 8.8807253876562930e-07 8.8807258937009559e-07  -1.0106412253429504e+01 -6.3432448004795607e-03 -5.3791533126084038e-03  -1.0110476329432448e+01 -3.0986576059675816e-03 -3.0986576058225040e-03  -1.0103739239657774e+01 9.7975805942631584e-07 9.7975807231026994e-07  -1.0109865175447037e+01 -3.6412750226751055e-03 -2.5736224549076933e-03  -1.0105535061880683e+01 -4.0557708467696858e-03 -2.4367124574816898e-03  -1.0099276142172791e+01 1.0346165061472401e-06 6.2051106472542266e-07  -1.0103186691866556e+01 1.1148177783761970e-06 7.5849123133406045e-07  -1.0109434931669256e+01 -6.5962880646498884e-03 -4.6960635887640370e-03  -1.0105177185911529e+01 -7.3137554311592514e-03 -4.4483903290675831e-03  -1.0111508785880153e+01 -8.9013818466259827e-03 -6.3844679234319416e-03  -1.0113711711041573e+01 -3.2241745065690894e-03 -2.6977536630247408e-03  -1.0106655286089163e+01 1.0935512795586495e-06 8.8502287597294690e-07  -1.0113208967151333e+01 -5.8625150883368045e-03 -4.9211370501200218e-03  -1.0115365768762921e+01 -7.9418262782381382e-03 -6.6886969614063287e-03  -1.0117081714534853e+01 -2.8082800509217362e-03 -2.8082800508668249e-03  -1.0109684295679299e+01 1.0004736904393484e-06 1.0004736290543011e-06  -1.0116508130437632e+01 -5.1219284176873244e-03 -5.1219284175448776e-03  -1.0112518335974617e+01 -3.7626538001871422e-03 -2.1940597435124672e-03  -1.0108042974452648e+01 -4.1883382226507214e-03 -2.0767635063405946e-03  -1.0101540014969826e+01 1.1136223996302428e-06 4.9145221629655234e-07  -1.0105572725090628e+01 1.2087390009969618e-06 6.2178201873369297e-07  -1.0112029124659875e+01 -6.8163153171734341e-03 -4.0138726946669671e-03  -1.0107630879058139e+01 -7.5534730675831472e-03 -3.8013248599055513e-03  -1.0114146946133594e+01 -9.1986746218639549e-03 -5.4716938685347395e-03  -1.0113322693103566e+01 -1.3579196433575217e-02 -8.6790182001085930e-03  -1.0115957888859818e+01 -1.4031206318388459e-02 -7.4988705450896500e-03  -1.0118237648156313e+01 -1.4298502376508536e-02 -7.7482086355560283e-03  -1.0123415125973484e+01 -1.3193694056505721e-02 -8.1630806862126679e-03  -1.0120921000994057e+01 -1.2894138679779375e-02 -7.9035292764070408e-03  -1.0116496509271954e+01 -3.3333879643985950e-03 -2.3006637363676011e-03  -1.0109151593386800e+01 1.1956841835811988e-06 7.4334200764187687e-07  -1.0115930150022741e+01 -6.0608981266661440e-03 -4.2074716159718499e-03  -1.0118135468292691e+01 -8.2104546293811208e-03 -5.7338221595521705e-03  -1.0113449196692402e+01 -1.0608562071331679e-02 -7.6661497857783648e-03  -1.0117383197583921e+01 -9.5019449958534674e-03 -8.0294711319140368e-03  -1.0120190877039146e+01 -9.8233288321668659e-03 -6.9017330520036455e-03  -1.0116121871891227e+01 -1.0963473836435046e-02 -6.5881497577650744e-03  -1.0115743594980941e+01 -1.1778234383145212e-02 -8.5745312418208253e-03  -1.0119793010982258e+01 -1.0590269209055739e-02 -8.9788422230040917e-03  -1.0122662550003570e+01 -1.0948549959402825e-02 -7.7385364662205473e-03  -1.0118472803487057e+01 -1.2173049318073635e-02 -7.3889673845071811e-03  -1.0125255831495643e+01 -1.1639719880969051e-02 -8.2753048925518977e-03  -1.0119983742904804e+01 -2.9046592139334738e-03 -2.3957879123845545e-03  -1.0112278286519834e+01 1.1055410467217259e-06 8.5597266306782445e-07  -1.0119342093325812e+01 -5.2972994859157192e-03 -4.3805406557916055e-03  -1.0118730634909891e+01 -6.9606352022202975e-03 -6.9606352020094618e-03  -1.0121617027908245e+01 -7.1985369016003171e-03 -5.9685913305118979e-03  -1.0123731606781593e+01 -8.6400133326878965e-03 -7.1831119466023285e-03  -1.0126295426284402e+01 -9.6601190615737929e-03 -8.0527847471860026e-03  -1.0129000383046266e+01 -1.0301594108265677e-02 -8.6101180956971481e-03  -1.0119983742904791e+01 -2.3957879125552414e-03 -2.9046592138385540e-03  -1.0122988078121349e+01 -2.4788938976752729e-03 -2.4788938975104208e-03  -1.0112278286519986e+01 8.5597254914922210e-07 1.1055409817051318e-06  -1.0114956902948425e+01 9.5989312908001991e-07 9.5989322079584662e-07  -1.0119342093325933e+01 -4.3805406558300114e-03 -5.2972994858260019e-03  -1.0122274176247998e+01 -4.5319751920799732e-03 -4.5319751920321998e-03  -1.0124604885433836e+01 -6.1743362453852407e-03 -6.1743362450777496e-03  -1.0126762472952477e+01 -7.4300949721921947e-03 -7.4300949721997417e-03  -1.0125518176444492e+01 -2.0573110916744901e-03 -2.5496290021462479e-03  -1.0117192711971100e+01 7.7410662570973899e-07 1.0555461288366904e-06  -1.0114442822215631e+01 6.7441419424233780e-07 1.2010832927819732e-06  -1.0124735776475964e+01 -3.7687716780817112e-03 -4.6610297722868357e-03  -1.0127111431161527e+01 -5.1452545006970577e-03 -6.3499054342048599e-03  -1.0127582478785394e+01 -1.6402621852437120e-03 -2.6077744250598239e-03  -1.0118991248701787e+01 5.5941632719813036e-07 1.1434840447278225e-06  -1.0116183610491943e+01 4.6619885290495120e-07 1.2880055363252197e-06  -1.0129188601172896e+01 -1.2274758374740287e-03 -2.6532038357426385e-03  -1.0120357663906159e+01 3.2429622551075634e-07 1.2242880669670319e-06  -1.0117505893705218e+01 2.3910371128722446e-07 1.3671816317249028e-06  -1.0130342903849360e+01 -8.1824029990721920e-04 -2.6858511675332923e-03  -1.0121296261996614e+01 7.5406509223941999e-08 1.2985100142241624e-06  -1.0114750189018999e+01 -3.8653831582601303e-03 -1.8193425351120029e-03  -1.0110151993399665e+01 -4.3002763573746512e-03 -1.7217036959796394e-03  -1.0103427510485874e+01 1.1829914450088836e-06 3.3554397845471971e-07  -1.0107562555900524e+01 1.2922139107657539e-06 4.5478064024797392e-07  -1.0114204802213751e+01 -7.0028106446415085e-03 -3.3353824659784256e-03  -1.0116357620173865e+01 -9.4510464538988936e-03 -4.5567096237038914e-03  -1.0125806036665178e+01 -1.3560686111532069e-02 -6.8583026564589420e-03  -1.0123249168680649e+01 -1.3251547010177625e-02 -6.6259954834265149e-03  -1.0125871724746402e+01 -1.3135855965217835e-02 -8.1992458518116412e-03  -1.0128334033023835e+01 -1.3502449692716233e-02 -6.9028896959725406e-03  -1.0126398123845535e+01 -1.2170019850450986e-02 -6.9055556170113845e-03  -1.0128048352856851e+01 -1.1117328814055147e-02 -6.3652920387135868e-03  -1.0130652764426143e+01 -1.1430276844613294e-02 -5.3978658363938873e-03  -1.0137198747671272e+01 -1.0714593560783733e-02 -5.6769655089444681e-03  -1.0128928261409143e+01 -1.2511521650401746e-02 -5.8465345242141049e-03  -1.0135238653312939e+01 -1.1699298923227077e-02 -6.1506244935607898e-03  -1.0132533452125982e+01 -1.1379120222638957e-02 -7.2655979598009639e-03  -1.0132187802537571e+01 -1.0220272395139868e-02 -4.8724714170755527e-03  -1.0138952474003437e+01 -9.6010890445154123e-03 -5.1230529102994282e-03  -1.0118839949602824e+01 -3.4260155699778090e-03 -1.9082612933520944e-03  -1.0111233987503557e+01 1.2874972997482170e-06 5.6791979214856863e-07  -1.0118213101440599e+01 -6.2293876631616526e-03 -3.4970728264934210e-03  -1.0120457237313788e+01 -8.4389346530602954e-03 -4.7759414943840698e-03  -1.0122539387030791e+01 -1.0097084016633943e-02 -5.7613680202997473e-03  -1.0118356550182179e+01 -1.1265232788433752e-02 -5.4987254156023818e-03  -1.0125057081600870e+01 -1.1254188463558667e-02 -6.4741478539368418e-03  -1.0120749191950932e+01 -1.2509269023281970e-02 -6.1809393681259211e-03  -1.0127707135590320e+01 -1.1965262449331658e-02 -6.9382827507523384e-03  -1.0127918204706576e+01 -1.1951738928313492e-02 -8.5449967495061993e-03  -1.0130438012522461e+01 -1.2286646479100171e-02 -7.1795661341017090e-03  -1.0130559381749647e+01 -1.1938264287252099e-02 -8.5809070105534388e-03  -1.0133156874297617e+01 -1.2273413196272105e-02 -7.2243844769912533e-03  -1.0128236949172447e+01 -1.2779847681488465e-02 -8.0427897654725168e-03  -1.0133119420968512e+01 -1.1649806889907919e-02 -8.4153815212737390e-03  -1.0135801471610721e+01 -1.1977421846733846e-02 -7.0986839398740507e-03  -1.0130777173228804e+01 -1.3137592174508817e-02 -6.7844104108349046e-03  -1.0130467814541079e+01 -1.2178774679301669e-02 -7.7227044515287679e-03  -1.0135548919104549e+01 -1.1132504397278985e-02 -8.0788685571880885e-03  -1.0138319609929633e+01 -1.1446060658885777e-02 -6.8271759690370073e-03  -1.0133089882961734e+01 -1.2520626347548464e-02 -6.5263783568673467e-03  -1.0137811042979594e+01 -1.0427458572663015e-02 -7.5992864283436429e-03  -1.0140671625356923e+01 -1.0721564108967914e-02 -6.4327762975132981e-03  -1.0142827188419819e+01 -9.8407913440308956e-03 -5.9362635010554261e-03  -1.0122426768559951e+01 -2.9865552295798270e-03 -1.9877503919211270e-03  -1.0114442822215500e+01 1.2010833765012204e-06 6.7441408622236130e-07  -1.0121720501724941e+01 -5.4465138184171388e-03 -3.6418721427005319e-03  -1.0124037552736603e+01 -7.4012336381182129e-03 -4.9726242701429776e-03  -1.0126181069580110e+01 -8.8833014879875181e-03 -5.9974185699738043e-03  -1.0128794492482108e+01 -9.9322153084927915e-03 -6.7381342716738906e-03  -1.0131560372917614e+01 -1.0591904747779693e-02 -7.2199290348176617e-03  -1.0134427259818240e+01 -1.0908147235703158e-02 -7.4697864829491954e-03  -1.0137296950029135e+01 -1.0926446516445924e-02 -7.5152706485300900e-03  -1.0140102413780841e+01 -1.0690354593300009e-02 -7.3834580543813691e-03  -1.0142786159694973e+01 -1.0240297376822281e-02 -7.1001163492130934e-03  -1.0145303443471136e+01 -9.6128510318289045e-03 -6.6891252134957287e-03  -1.0147619180612061e+01 -8.8404022216316703e-03 -6.1721245567011454e-03  -1.0125518176444430e+01 -2.5496290022575677e-03 -2.0573110916771442e-03  -1.0117192711970942e+01 1.0555460370786814e-06 7.7410658293561012e-07  -1.0124735776476060e+01 -4.6610297723636155e-03 -3.7687716779923729e-03  -1.0127111431161509e+01 -6.3499054342519021e-03 -5.1452545007307166e-03  -1.0129299695904033e+01 -7.6411344780124759e-03 -6.2049167148206024e-03  -1.0129396219501462e+01 -8.3290539914133866e-03 -8.3290539913584375e-03  -1.0131985989587761e+01 -8.5654321895572878e-03 -6.9705386866923385e-03  -1.0132186462553561e+01 -8.9049228330456073e-03 -8.9049228331214494e-03  -1.0134840565147163e+01 -9.1574924891936853e-03 -7.4682467461104846e-03  -1.0137812813645359e+01 -9.4540034277393846e-03 -7.7260300337392814e-03  -1.0128122506165283e+01 -2.1166046659001235e-03 -2.1166046657929839e-03  -1.0119488631304771e+01 8.6709528070810732e-07 8.6709519567645286e-07  -1.0127268016886099e+01 -3.8770709833917953e-03 -3.8770709832771973e-03  -1.0129691018331554e+01 -5.2927682574778478e-03 -5.2927682573729014e-03  -1.0129299695903786e+01 -6.2049167147147349e-03 -7.6411344779956144e-03  -1.0131911305189819e+01 -6.3824515630250484e-03 -6.3824515630238315e-03  -1.0134652524810345e+01 -7.1696367207679228e-03 -7.1696367209302192e-03  -1.0137574180419255e+01 -7.6812451158244444e-03 -7.6812451158948551e-03  -1.0140626967104120e+01 -7.9460968193743441e-03 -7.9460968197580598e-03  -1.0130248000771589e+01 -1.6879401652506742e-03 -2.1654104095607286e-03  -1.0121335930192419e+01 6.4768175294037274e-07 9.5362813996430325e-07  -1.0126735740156608e+01 -3.0096446132284764e-03 -4.7672221256137483e-03  -1.0129325898510009e+01 -3.0968039016067562e-03 -3.9663001052576948e-03  -1.0129147766712119e+01 -4.1157510937775543e-03 -6.4945296988881858e-03  -1.0131787278727526e+01 -4.2345904681246431e-03 -5.4144346424958674e-03  -1.0134029753893367e+01 -5.1151024486111940e-03 -6.5290341800868625e-03  -1.0136811667581107e+01 -5.7558504084655356e-03 -7.3341986126535001e-03  -1.0131902167812312e+01 -1.2634372402141780e-03 -2.2035916592174081e-03  -1.0122739650151628e+01 4.0638789496050837e-07 1.0340260016573394e-06  -1.0130917137953775e+01 -2.3209660615015125e-03 -4.0361564202734549e-03  -1.0133409632795598e+01 -3.1779071669646775e-03 -5.5097689029038740e-03  -1.0135666583882873e+01 -3.8439595162078205e-03 -6.6439928869717439e-03  -1.0133091316025874e+01 -8.4243154734310545e-04 -2.2310690814130959e-03  -1.0123704036101202e+01 1.5039210073843624e-07 1.1086202081656395e-06  -1.0132048096483032e+01 -1.5492747681639125e-03 -4.0864548435344651e-03  -1.0133820231014385e+01 -4.2394056413119199e-04 -2.2478005949259756e-03  -1.0132723499680136e+01 -7.8074780005994520e-04 -4.1170903048312430e-03  -1.0116569454886736e+01 -3.9494196917845385e-03 -1.4494714216350332e-03  -1.0109162092792074e+01 1.3669399834663639e-06 2.6589105911155534e-07  -1.0115971022270593e+01 -7.1555534727003444e-03 -2.6618345409576008e-03  -1.0127026563005325e+01 -1.3427117049488079e-02 -6.2017331702656471e-03  -1.0137399886130476e+01 -1.1964493992053736e-02 -4.9846996887434143e-03  -1.0130948100647627e+01 -1.2794067064071633e-02 -4.7387001431521691e-03  -1.0128989407768533e+01 -1.3728920685001172e-02 -5.0189180437574879e-03  -1.0135187887547920e+01 -1.2803461352855594e-02 -5.2812582011786601e-03  -1.0139422584102363e+01 -1.0958221905519800e-02 -4.6074962405350996e-03  -1.0132729188306232e+01 -1.1689482761277794e-02 -4.3814775269853216e-03  -1.0141236358372014e+01 -9.8200116644001790e-03 -4.1638141435374303e-03  -1.0134318619195481e+01 -1.0452901623247383e-02 -3.9606877312139705e-03  -1.0142827067450661e+01 -8.5792888682735251e-03 -3.6661863791681288e-03  -1.0120750746852218e+01 -3.5019232162984536e-03 -1.5206622932662586e-03  -1.0112908310518556e+01 1.3702847882121131e-06 3.6820904509016419e-07  -1.0120066891967037e+01 -6.3676193509732415e-03 -2.7914222638517035e-03  -1.0122342305802343e+01 -8.6266072420046885e-03 -3.8188088926379626e-03  -1.0118151959593986e+01 -9.6580037472501924e-03 -3.6429025241159797e-03  -1.0124442672905955e+01 -1.0322220501501753e-02 -4.6149123160351543e-03  -1.0120167017022750e+01 -1.1513011311606957e-02 -4.4039264925782038e-03  -1.0126994049551008e+01 -1.1505856965489383e-02 -5.1951283934920569e-03  -1.0122589941679761e+01 -1.2785707455707987e-02 -4.9593061516321497e-03  -1.0129685717529814e+01 -1.2233651681178646e-02 -5.5774683733349623e-03  -1.0125127607608603e+01 -1.3545793898233360e-02 -5.3259994966110800e-03  -1.0132467373541582e+01 -1.2563092988695400e-02 -5.7814959883168860e-03  -1.0127730709400028e+01 -1.3863215879270273e-02 -5.5224909478360411e-03  -1.0135244288228927e+01 -1.2550387350177154e-02 -5.8274326850375219e-03  -1.0130311787903009e+01 -1.3805033856032116e-02 -5.5679389630387934e-03  -1.0137952570330812e+01 -1.2248479580224824e-02 -5.7353593357361904e-03  -1.0132813348527513e+01 -1.3433232426451199e-02 -5.4814076191152198e-03  -1.0140537936134230e+01 -1.1705770165179506e-02 -5.5245844782819296e-03  -1.0142958560348196e+01 -1.0965415490780775e-02 -5.2131794566381579e-03  -1.0145181944101774e+01 -1.0065096850988293e-02 -4.8176773318217656e-03  -1.0147183446533457e+01 -9.0371341324450745e-03 -4.3529172046386016e-03  -1.0148944655242222e+01 -7.9088381757876046e-03 -3.8320109976196911e-03  -1.0124419400612705e+01 -3.0537767281851526e-03 -1.5844028993145837e-03  -1.0116183610492335e+01 1.2880055519556729e-06 4.6619885687899786e-07  -1.0123652343738398e+01 -5.5691218734100047e-03 -2.9076468175657120e-03  -1.0126003410272416e+01 -7.5679769886923967e-03 -3.9768508761423614e-03  -1.0128166809718060e+01 -9.0836682490204219e-03 -4.8047990890194344e-03  -1.0130816737030422e+01 -1.0156569943091319e-02 -5.4077284302638754e-03  -1.0133627490818682e+01 -1.0831557025864098e-02 -5.8045482265992798e-03  -1.0136548959463653e+01 -1.1155384981726798e-02 -6.0157518312174965e-03  -1.0139480881929684e+01 -1.1174531505081433e-02 -6.0624844461738695e-03  -1.0142354478900526e+01 -1.0933488670709451e-02 -5.9657179511065726e-03  -1.0145110034152045e+01 -1.0473565727464452e-02 -5.7455975167326808e-03  -1.0147700512170230e+01 -9.8321494250909764e-03 -5.4209619288213820e-03  -1.0150088532292795e+01 -9.0423547042282702e-03 -5.0090335964480034e-03  -1.0152245073272299e+01 -8.1329817379833160e-03 -4.5252592882752572e-03  -1.0127582478785204e+01 -2.6077744249911462e-03 -1.6402621856225752e-03  -1.0118991248702111e+01 1.1434839518592108e-06 5.5941620051395312e-07  -1.0126735740156567e+01 -4.7672221256366927e-03 -3.0096446132676291e-03  -1.0129147766712210e+01 -6.4945296988778616e-03 -4.1157510937442372e-03  -1.0131357220638440e+01 -7.8151693295250395e-03 -4.9719317613392787e-03  -1.0134082336757714e+01 -8.7605797323474788e-03 -5.5951242530111979e-03  -1.0136984458768305e+01 -9.3662382005054029e-03 -6.0049915603294871e-03  -1.0140014428757782e+01 -9.6696502428465156e-03 -6.2228138103397551e-03  -1.0140800470251138e+01 -9.4919527749187365e-03 -7.7724548570842229e-03  -1.0143067782545719e+01 -9.7086231068970706e-03 -6.2705238506995786e-03  -1.0146072062711568e+01 -9.5198444534566953e-03 -6.1698586814635612e-03  -1.0148963271085258e+01 -9.1378288291102776e-03 -5.9416867929113527e-03  -1.0151690157129604e+01 -8.5942135149234215e-03 -5.6055148668018870e-03  -1.0154211288746533e+01 -7.9173678139792033e-03 -5.1791691730016043e-03  -1.0156493927947421e+01 -7.1322614638994631e-03 -4.6786322954564087e-03  -1.0130248000771495e+01 -2.1654104094811729e-03 -1.6879401654140529e-03  -1.0121335930192545e+01 9.5362830482569051e-07 6.4768175726998969e-07  -1.0129325898509990e+01 -3.9663001052862102e-03 -3.0968039016209354e-03  -1.0131787278727465e+01 -5.4144346424649190e-03 -4.2345904680279375e-03  -1.0134029753893508e+01 -6.5290341799580523e-03 -5.1151024484662770e-03  -1.0136811667581135e+01 -7.3341986125548229e-03 -5.7558504083314293e-03  -1.0139783020783799e+01 -7.8574828165853781e-03 -6.1771166783167811e-03  -1.0142896072049227e+01 -8.1283727983148708e-03 -6.4008326127038516e-03  -1.0146043166095366e+01 -8.1769394350152385e-03 -6.4495870114299374e-03  -1.0149149128340246e+01 -8.0326948088080812e-03 -6.3457578760901037e-03  -1.0132424009586213e+01 -1.7272352170880393e-03 -1.7272352169565505e-03  -1.0123222828687336e+01 7.3098951339528311e-07 7.3098966790432760e-07  -1.0131431320894178e+01 -3.1687041855263135e-03 -3.1687041854227397e-03  -1.0133932762670520e+01 -4.3327252661221590e-03 -4.3327252659100726e-03  -1.0136198157077494e+01 -5.2334510709401809e-03 -5.2334510705823916e-03  -1.0139022235826744e+01 -5.8888481159759722e-03 -5.8888481159519611e-03  -1.0139783020783815e+01 -6.1771166783856808e-03 -7.8574828164955594e-03  -1.0142044967300301e+01 -6.3196927155415722e-03 -6.3196927155479204e-03  -1.0145220283652012e+01 -6.5484389187288241e-03 -6.5484389187734056e-03  -1.0148438112330306e+01 -6.5982046197203747e-03 -6.5982046197228163e-03  -1.0134117892813661e+01 -1.2931161043622089e-03 -1.7580173592868576e-03  -1.0124656875842252e+01 4.8516549126631933e-07 8.0943617488698248e-07  -1.0133059620950259e+01 -2.3753034387252862e-03 -3.2250665709339320e-03  -1.0135593555935085e+01 -3.2521322893971829e-03 -4.4097188176147649e-03  -1.0137873918546525e+01 -3.9335470046388751e-03 -5.3263830816630033e-03  -1.0140728330130088e+01 -4.4322688042310243e-03 -5.9933736304975099e-03  -1.0143787814782987e+01 -4.7631553231334703e-03 -6.4318429764983745e-03  -1.0147008097652034e+01 -4.9423902729153783e-03 -6.6646455716244573e-03  -1.0135335892844246e+01 -8.6243329480265257e-04 -1.7802070618099144e-03  -1.0125642252111827e+01 2.2377474896620743e-07 8.8316113542349838e-07  -1.0134217103706098e+01 -1.5859076263746040e-03 -3.2657143049429366e-03  -1.0134565681331756e+01 -2.1236473929736330e-03 -5.5784636682209227e-03  -1.0136777218188092e+01 -2.1737262987777677e-03 -4.4652870551637764e-03  -1.0139066127656539e+01 -2.6322224153213247e-