<?xml version="1.0"?>
<VTKFile type="UnstructuredGrid"  version="0.1"  >
<UnstructuredGrid>
<Piece  NumberOfPoints="7705" NumberOfCells="39130">
<Points>
<DataArray  type="Float64"  NumberOfComponents="3"  format="ascii">0 0 0.175  0.025 0 0.175  0.025 0 0.2  0.025 0.025 0.2  0 0 0.2  0 0.025 0.2  0 0.025 0.175  0.05 0 0.175  0.05 0 0.2  0.05 0.025 0.2  0.075 0 0.2  0.075 0.025 0.2  0.025 0.05 0.2  0 0.05 0.2  0 0.05 0.175  0.025 0.075 0.2  0 0.075 0.2  0.025 0.025 0.225  0.025 0 0.225  0 0 0.225  0 0.025 0.225  0.05 0.025 0.225  0.05 0 0.225  0.075 0.025 0.225  0.075 0 0.225  0.1 0 0.225  0.1 0.025 0.225  0.025 0.05 0.225  0 0.05 0.225  0.05 0.05 0.2  0.05 0.05 0.225  0.075 0.05 0.2  0.075 0.05 0.225  0.1 0.05 0.225  0.025 0.075 0.225  0 0.075 0.225  0.05 0.075 0.225  0.075 0.075 0.225  0.1 0.075 0.225  0.025 0.1 0.2  0.025 0.1 0.225  0 0.1 0.2  0 0.1 0.225  0.05 0.1 0.225  0.025 0.125 0.225  0 0.125 0.225  0.05 0.125 0.225  0.025 0.025 0.25  0.025 0 0.25  0 0 0.25  0 0.025 0.25  0.05 0.025 0.25  0.05 0 0.25  0.075 0.025 0.25  0.075 0 0.25  0.1 0.025 0.25  0.1 0 0.25  0.125 0 0.225  0.125 0 0.25  0.125 0.025 0.25  0.15 0 0.225  0.15 0 0.25  0.15 0.025 0.25  0.175 0.025 0.25  0.025 0.05 0.25  0 0.05 0.25  0.05 0.05 0.25  0.075 0.05 0.25  0.1 0.05 0.25  0.125 0.05 0.25  0.025 0.075 0.25  0 0.075 0.25  0.05 0.075 0.25  0.075 0.075 0.25  0.1 0.075 0.25  0.125 0.075 0.25  0.025 0.1 0.25  0 0.1 0.25  0.05 0.1 0.25  0.075 0.1 0.25  0.1 0.1 0.25  0.125 0.1 0.25  0.025 0.125 0.25  0 0.125 0.25  0.05 0.125 0.25  0.075 0.125 0.25  0.025 0.15 0.25  0 0.15 0.25  0.05 0.15 0.25  0.075 0.15 0.25  0.025 0.025 0.275  0.025 0 0.275  0 0 0.275  0 0.025 0.275  0.05 0.025 0.275  0.05 0 0.275  0.075 0.025 0.275  0.075 0 0.275  0.1 0.025 0.275  0.1 0 0.275  0.125 0.025 0.275  0.125 0 0.275  0.15 0.025 0.275  0.15 0 0.275  0.175 0.025 0.275  0.025 0.05 0.275  0 0.05 0.275  0.05 0.05 0.275  0.075 0.05 0.275  0.1 0.05 0.275  0.125 0.05 0.275  0.15 0.05 0.25  0.15 0.05 0.275  0.175 0.05 0.25  0.175 0.05 0.275  0.2 0.05 0.275  0.025 0.075 0.275  0 0.075 0.275  0.05 0.075 0.275  0.075 0.075 0.275  0.1 0.075 0.275  0.125 0.075 0.275  0.15 0.075 0.25  0.15 0.075 0.275  0.175 0.075 0.275  0.2 0.075 0.275  0.025 0.1 0.275  0 0.1 0.275  0.05 0.1 0.275  0.075 0.1 0.275  0.1 0.1 0.275  0.125 0.1 0.275  0.15 0.1 0.25  0.15 0.1 0.275  0.175 0.1 0.275  0.025 0.125 0.275  0 0.125 0.275  0.05 0.125 0.275  0.075 0.125 0.275  0.1 0.125 0.25  0.1 0.125 0.275  0.125 0.125 0.25  0.125 0.125 0.275  0.15 0.125 0.275  0.175 0.125 0.275  0.025 0.15 0.275  0 0.15 0.275  0.05 0.15 0.275  0.075 0.15 0.275  0.1 0.15 0.25  0.1 0.15 0.275  0.125 0.15 0.275  0.15 0.15 0.275  0.025 0.175 0.25  0.025 0.175 0.275  0 0.175 0.25  0 0.175 0.275  0.05 0.175 0.275  0.075 0.175 0.275  0.1 0.175 0.275  0.125 0.175 0.275  0.025 0.2 0.275  0 0.2 0.275  0 0.2 0.25  0.05 0.2 0.275  0.025 0.225 0.275  0 0.225 0.275  0.025 0.025 0.3  0.025 0 0.3  0 0 0.3  0 0.025 0.3  0.05 0.025 0.3  0.05 0 0.3  0.075 0.025 0.3  0.075 0 0.3  0.1 0.025 0.3  0.1 0 0.3  0.125 0.025 0.3  0.125 0 0.3  0.15 0.025 0.3  0.15 0 0.3  0.175 0.025 0.3  0.025 0.05 0.3  0 0.05 0.3  0.05 0.05 0.3  0.075 0.05 0.3  0.1 0.05 0.3  0.125 0.05 0.3  0.15 0.05 0.3  0.175 0.05 0.3  0.2 0.05 0.3  0.025 0.075 0.3  0 0.075 0.3  0.05 0.075 0.3  0.075 0.075 0.3  0.1 0.075 0.3  0.125 0.075 0.3  0.15 0.075 0.3  0.175 0.075 0.3  0.2 0.075 0.3  0.025 0.1 0.3  0 0.1 0.3  0.05 0.1 0.3  0.075 0.1 0.3  0.1 0.1 0.3  0.125 0.1 0.3  0.15 0.1 0.3  0.175 0.1 0.3  0.2 0.1 0.3  0.225 0.1 0.3  0.025 0.125 0.3  0 0.125 0.3  0.05 0.125 0.3  0.075 0.125 0.3  0.1 0.125 0.3  0.125 0.125 0.3  0.15 0.125 0.3  0.175 0.125 0.3  0.2 0.125 0.3  0.025 0.15 0.3  0 0.15 0.3  0.05 0.15 0.3  0.075 0.15 0.3  0.1 0.15 0.3  0.125 0.15 0.3  0.15 0.15 0.3  0.175 0.15 0.275  0.175 0.15 0.3  0.2 0.15 0.3  0.025 0.175 0.3  0 0.175 0.3  0.05 0.175 0.3  0.075 0.175 0.3  0.1 0.175 0.3  0.125 0.175 0.3  0.15 0.175 0.3  0.175 0.175 0.3  0.2 0.175 0.3  0.025 0.2 0.3  0 0.2 0.3  0.05 0.2 0.3  0.075 0.2 0.275  0.075 0.2 0.3  0.1 0.2 0.3  0.125 0.2 0.3  0.15 0.2 0.3  0.025 0.225 0.3  0 0.225 0.3  0.05 0.225 0.275  0.05 0.225 0.3  0.075 0.225 0.275  0.075 0.225 0.3  0.1 0.225 0.3  0.025 0.25 0.3  0 0.25 0.3  0.05 0.25 0.3  0.075 0.25 0.3  0.1 0.25 0.3  0.025 0.025 0.325  0.025 0 0.325  0 0 0.325  0 0.025 0.325  0.05 0.025 0.325  0.05 0 0.325  0.075 0.025 0.325  0.075 0 0.325  0.1 0.025 0.325  0.1 0 0.325  0.125 0.025 0.325  0.125 0 0.325  0.15 0.025 0.325  0.15 0 0.325  0.175 0.025 0.325  0.025 0.05 0.325  0 0.05 0.325  0.05 0.05 0.325  0.075 0.05 0.325  0.1 0.05 0.325  0.125 0.05 0.325  0.15 0.05 0.325  0.175 0.05 0.325  0.2 0.05 0.325  0.025 0.075 0.325  0 0.075 0.325  0.05 0.075 0.325  0.075 0.075 0.325  0.1 0.075 0.325  0.125 0.075 0.325  0.15 0.075 0.325  0.175 0.075 0.325  0.2 0.075 0.325  0.025 0.1 0.325  0 0.1 0.325  0.05 0.1 0.325  0.075 0.1 0.325  0.1 0.1 0.325  0.125 0.1 0.325  0.15 0.1 0.325  0.175 0.1 0.325  0.2 0.1 0.325  0.225 0.1 0.325  0.025 0.125 0.325  0 0.125 0.325  0.05 0.125 0.325  0.075 0.125 0.325  0.1 0.125 0.325  0.125 0.125 0.325  0.15 0.125 0.325  0.175 0.125 0.325  0.2 0.125 0.325  0.225 0.125 0.3  0.225 0.125 0.325  0.25 0.125 0.3  0.25 0.125 0.325  0.025 0.15 0.325  0 0.15 0.325  0.05 0.15 0.325  0.075 0.15 0.325  0.1 0.15 0.325  0.125 0.15 0.325  0.15 0.15 0.325  0.175 0.15 0.325  0.2 0.15 0.325  0.225 0.15 0.3  0.225 0.15 0.325  0.25 0.15 0.3  0.25 0.15 0.325  0.275 0.15 0.325  0.025 0.175 0.325  0 0.175 0.325  0.05 0.175 0.325  0.075 0.175 0.325  0.1 0.175 0.325  0.125 0.175 0.325  0.15 0.175 0.325  0.175 0.175 0.325  0.2 0.175 0.325  0.225 0.175 0.3  0.225 0.175 0.325  0.25 0.175 0.3  0.25 0.175 0.325  0.275 0.175 0.325  0.025 0.2 0.325  0 0.2 0.325  0.05 0.2 0.325  0.075 0.2 0.325  0.1 0.2 0.325  0.125 0.2 0.325  0.15 0.2 0.325  0.175 0.2 0.3  0.175 0.2 0.325  0.2 0.2 0.3  0.2 0.2 0.325  0.225 0.2 0.3  0.225 0.2 0.325  0.25 0.2 0.325  0.275 0.2 0.325  0.025 0.225 0.325  0 0.225 0.325  0.05 0.225 0.325  0.075 0.225 0.325  0.1 0.225 0.325  0.125 0.225 0.3  0.125 0.225 0.325  0.15 0.225 0.325  0.175 0.225 0.325  0.2 0.225 0.3  0.2 0.225 0.325  0.225 0.225 0.3  0.225 0.225 0.325  0.25 0.225 0.325  0.025 0.25 0.325  0 0.25 0.325  0.05 0.25 0.325  0.075 0.25 0.325  0.1 0.25 0.325  0.125 0.25 0.325  0.15 0.25 0.325  0.225 0.25 0.325  0.2 0.25 0.325  0.25 0.25 0.325  0.075 0.275 0.325  0.1 0.275 0.325  0.125 0.275 0.325  0.025 0.025 0.35  0.025 0 0.35  0 0 0.35  0 0.025 0.35  0.05 0.025 0.35  0.05 0 0.35  0.075 0.025 0.35  0.075 0 0.35  0.1 0.025 0.35  0.1 0 0.35  0.125 0.025 0.35  0.125 0 0.35  0.15 0.025 0.35  0.15 0 0.35  0.175 0.025 0.35  0.025 0.05 0.35  0 0.05 0.35  0.05 0.05 0.35  0.075 0.05 0.35  0.1 0.05 0.35  0.125 0.05 0.35  0.15 0.05 0.35  0.175 0.05 0.35  0.2 0.05 0.35  0.025 0.075 0.35  0 0.075 0.35  0.05 0.075 0.35  0.075 0.075 0.35  0.1 0.075 0.35  0.125 0.075 0.35  0.15 0.075 0.35  0.175 0.075 0.35  0.2 0.075 0.35  0.225 0.075 0.35  0.025 0.1 0.35  0 0.1 0.35  0.05 0.1 0.35  0.075 0.1 0.35  0.1 0.1 0.35  0.125 0.1 0.35  0.15 0.1 0.35  0.175 0.1 0.35  0.2 0.1 0.35  0.225 0.1 0.35  0.025 0.125 0.35  0 0.125 0.35  0.05 0.125 0.35  0.075 0.125 0.35  0.1 0.125 0.35  0.125 0.125 0.35  0.15 0.125 0.35  0.175 0.125 0.35  0.2 0.125 0.35  0.225 0.125 0.35  0.25 0.125 0.35  0.025 0.15 0.35  0 0.15 0.35  0.05 0.15 0.35  0.075 0.15 0.35  0.1 0.15 0.35  0.125 0.15 0.35  0.15 0.15 0.35  0.175 0.15 0.35  0.2 0.15 0.35  0.225 0.15 0.35  0.25 0.15 0.35  0.275 0.15 0.35  0.025 0.175 0.35  0 0.175 0.35  0.05 0.175 0.35  0.075 0.175 0.35  0.1 0.175 0.35  0.125 0.175 0.35  0.15 0.175 0.35  0.175 0.175 0.35  0.2 0.175 0.35  0.225 0.175 0.35  0.25 0.175 0.35  0.275 0.175 0.35  0.3 0.175 0.35  0.025 0.2 0.35  0 0.2 0.35  0.05 0.2 0.35  0.075 0.2 0.35  0.1 0.2 0.35  0.125 0.2 0.35  0.15 0.2 0.35  0.175 0.2 0.35  0.2 0.2 0.35  0.225 0.2 0.35  0.25 0.2 0.35  0.275 0.2 0.35  0.3 0.2 0.35  0.025 0.225 0.35  0 0.225 0.35  0.05 0.225 0.35  0.075 0.225 0.35  0.1 0.225 0.35  0.125 0.225 0.35  0.15 0.225 0.35  0.175 0.225 0.35  0.2 0.225 0.35  0.225 0.225 0.35  0.25 0.225 0.35  0.275 0.225 0.35  0.3 0.225 0.35  0.025 0.25 0.35  0 0.25 0.35  0.05 0.25 0.35  0.075 0.25 0.35  0.1 0.25 0.35  0.125 0.25 0.35  0.15 0.25 0.35  0.175 0.25 0.35  0.2 0.25 0.35  0.225 0.25 0.35  0.25 0.25 0.35  0.275 0.25 0.35  0.075 0.275 0.35  0.1 0.275 0.35  0.125 0.275 0.35  0.15 0.275 0.35  0.225 0.275 0.35  0.2 0.275 0.35  0.25 0.275 0.35  0.275 0.275 0.35  0.025 0.025 0.375  0.025 0 0.375  0 0 0.375  0 0.025 0.375  0.05 0.025 0.375  0.05 0 0.375  0.075 0.025 0.375  0.075 0 0.375  0.1 0.025 0.375  0.1 0 0.375  0.125 0.025 0.375  0.125 0 0.375  0.15 0.025 0.375  0.15 0 0.375  0.175 0.025 0.375  0.025 0.05 0.375  0 0.05 0.375  0.05 0.05 0.375  0.075 0.05 0.375  0.1 0.05 0.375  0.125 0.05 0.375  0.15 0.05 0.375  0.175 0.05 0.375  0.2 0.05 0.375  0.025 0.075 0.375  0 0.075 0.375  0.05 0.075 0.375  0.075 0.075 0.375  0.1 0.075 0.375  0.125 0.075 0.375  0.15 0.075 0.375  0.175 0.075 0.375  0.2 0.075 0.375  0.225 0.075 0.375  0.025 0.1 0.375  0 0.1 0.375  0.05 0.1 0.375  0.075 0.1 0.375  0.1 0.1 0.375  0.125 0.1 0.375  0.15 0.1 0.375  0.175 0.1 0.375  0.2 0.1 0.375  0.225 0.1 0.375  0.025 0.125 0.375  0 0.125 0.375  0.05 0.125 0.375  0.075 0.125 0.375  0.1 0.125 0.375  0.125 0.125 0.375  0.15 0.125 0.375  0.175 0.125 0.375  0.2 0.125 0.375  0.225 0.125 0.375  0.25 0.125 0.375  0.025 0.15 0.375  0 0.15 0.375  0.05 0.15 0.375  0.075 0.15 0.375  0.1 0.15 0.375  0.125 0.15 0.375  0.15 0.15 0.375  0.175 0.15 0.375  0.2 0.15 0.375  0.225 0.15 0.375  0.25 0.15 0.375  0.275 0.15 0.375  0.025 0.175 0.375  0 0.175 0.375  0.05 0.175 0.375  0.075 0.175 0.375  0.1 0.175 0.375  0.125 0.175 0.375  0.15 0.175 0.375  0.175 0.175 0.375  0.2 0.175 0.375  0.225 0.175 0.375  0.25 0.175 0.375  0.275 0.175 0.375  0.3 0.175 0.375  0.025 0.2 0.375  0 0.2 0.375  0.05 0.2 0.375  0.075 0.2 0.375  0.1 0.2 0.375  0.125 0.2 0.375  0.15 0.2 0.375  0.175 0.2 0.375  0.2 0.2 0.375  0.225 0.2 0.375  0.25 0.2 0.375  0.275 0.2 0.
[...]
<PointData  Vectors="f_123"> 
<DataArray  type="Float64"  Name="f_123"  NumberOfComponents="3" format="ascii">-1.0038508167235873e+01 5.6870102122130708e-05 -3.9655309995203678e-06  -1.0034550247423788e+01 -1.2641836421911610e-03 -1.6985449505628396e-03  -1.0036127811949378e+01 -1.3332064125769628e-03 -1.6281720981468624e-03  -1.0041554906264686e+01 -2.6704621325051355e-03 -1.7124304640220645e-03  -1.0040229046645877e+01 6.1351524830704587e-05 -4.1552192609326362e-06  -1.0042512757054793e+01 -1.4890442864053035e-04 -1.0766841057160813e-06  -1.0040682968630049e+01 -1.4120652556310527e-04 -1.5686008689543820e-06  -1.0030008487272630e+01 -1.4270649133294048e-03 -3.1821127955259641e-03  -1.0031345944647581e+01 -1.5193527127412680e-03 -3.0699769198927231e-03  -1.0039348787358785e+01 -3.6885721348814383e-03 -3.2024458270057776e-03  -1.0026025601516608e+01 -1.5881271729009058e-03 -4.2609310821152182e-03  -1.0036169269354742e+01 -4.1124774859760170e-03 -4.4195698809098459e-03  -1.0047297274679645e+01 -4.0689664196573551e-03 -1.9168224234505510e-03  -1.0047062801262689e+01 -4.0685363487965356e-06 -1.3166686483012291e-06  -1.0044968989565822e+01 -3.3746624748878079e-06 -1.6387537573887694e-06  -1.0053170301924736e+01 -4.5188524983393926e-03 -2.1876774589129752e-03  -1.0051990268342449e+01 -1.3057807767763984e-05 -1.0532831771537670e-06  -1.0043249785567475e+01 -2.8047656950094348e-03 -1.6086197804012397e-03  -1.0037636596551360e+01 -1.3922164119258501e-03 -1.5359239729853672e-03  -1.0041853493969978e+01 6.5409696333637761e-05 -4.3003480661303794e-06  -1.0044228094582671e+01 -1.5545447255386701e-04 -7.0633126654791939e-07  -1.0040916931287876e+01 -3.8947549808137838e-03 -3.0259229431690714e-03  -1.0032643142321454e+01 -1.5994100845675614e-03 -2.9103807987500307e-03  -1.0037581763306797e+01 -4.3615625476062991e-03 -4.2021941140217419e-03  -1.0027071015003479e+01 -1.6810731464697720e-03 -4.0622325622887388e-03  -1.0021487343094398e+01 -1.6597297312460468e-03 -4.9697508794949328e-03  -1.0033916412509063e+01 -4.4531099642523587e-03 -5.1228557892765399e-03  -1.0049260337340346e+01 -4.2957439019679581e-03 -1.7861319586135274e-03  -1.0049007696280920e+01 -4.6899676077109147e-06 -1.0738088838540298e-06  -1.0046333457523223e+01 -6.3390214884950233e-03 -3.5308714651132653e-03  -1.0048221643894502e+01 -6.7170501988545721e-03 -3.3137631620818683e-03  -1.0044715230700513e+01 -7.3992856511728520e-03 -4.8198578194207807e-03  -1.0046520129510879e+01 -7.8668460888879892e-03 -4.5567683271719381e-03  -1.0044388428137260e+01 -8.3022449350608502e-03 -5.5135142783136496e-03  -1.0055458206216858e+01 -4.7932079498439204e-03 -2.0235167289847445e-03  -1.0054209051333981e+01 -1.4036092874434623e-05 -8.4669882934917935e-07  -1.0055038517289686e+01 -7.7515532129095203e-03 -3.7106961316252093e-03  -1.0054441417491741e+01 -9.4105775375092331e-03 -5.0549348706516728e-03  -1.0053435486162828e+01 -1.0220360687735880e-02 -6.0694254620239276e-03  -1.0058967873759505e+01 -4.6009512298330248e-03 -2.4935811185728459e-03  -1.0061612943400823e+01 -4.8983740235755587e-03 -2.2944890278336753e-03  -1.0057022220046640e+01 -5.4796008821212846e-06 -7.6182700025635067e-07  -1.0059542192936963e+01 -5.9753621096420807e-06 -5.8567399121367449e-07  -1.0061455053656854e+01 -8.2062613814750645e-03 -4.1720538356880129e-03  -1.0067515316431630e+01 -4.8047213602065283e-03 -2.5803551241838571e-03  -1.0064764522499402e+01 -2.8807966243809950e-06 -3.2790207889403627e-07  -1.0067469911209509e+01 -8.2307264513964973e-03 -4.6652509513271335e-03  -1.0044827881396758e+01 -2.9207624690742507e-03 -1.4899307531005307e-03  -1.0039055651508969e+01 -1.4427288260657478e-03 -1.4272967974609469e-03  -1.0043365099656063e+01 6.9018259858278432e-05 -4.4078358844247918e-06  -1.0045815263022480e+01 -1.6103992019619981e-04 -4.2578917978355936e-07  -1.0042378053908610e+01 -4.0743504223674284e-03 -2.8154486188489976e-03  -1.0033876515559887e+01 -1.6687011673093869e-03 -2.7150330412258239e-03  -1.0038899274590820e+01 -4.5804904452275731e-03 -3.9293137528087574e-03  -1.0028079629017787e+01 -1.7623138792591585e-03 -3.8065736431315798e-03  -1.0035078765767608e+01 -4.6918495490044848e-03 -4.8146837395110498e-03  -1.0022261194014868e+01 -1.7466204292447371e-03 -4.6791536321535293e-03  -1.0016096429928245e+01 -1.5899059695160065e-03 -5.6339768402168620e-03  -1.0016642007372480e+01 -1.6782112043205858e-03 -5.3298027690513224e-03  -1.0031140990393816e+01 -4.6104699473659026e-03 -5.4711171578617395e-03  -1.0010996299750783e+01 -1.4953949090630038e-03 -6.0696063508178192e-03  -1.0011330150961527e+01 -1.5821912707064336e-03 -5.7682400588504193e-03  -1.0027256925285648e+01 -4.4145642826403583e-03 -5.9102307785554821e-03  -1.0023523739620883e+01 -4.1522064568895022e-03 -6.1505300130698928e-03  -1.0051068242094642e+01 -4.4930902934934118e-03 -1.6436495025594809e-03  -1.0050793958177081e+01 -5.2371218770637467e-06 -8.8957932938556453e-07  -1.0049955921499830e+01 -7.0485569870451714e-03 -3.0664241308823469e-03  -1.0048171806034123e+01 -8.2804260344799801e-03 -4.2410985915761652e-03  -1.0045948686464856e+01 -8.7614529883416909e-03 -5.1610905875382890e-03  -1.0043455463220763e+01 -8.7970085293255767e-03 -5.8330443381789240e-03  -1.0057547312791794e+01 -5.0341871969050893e-03 -1.8506153125483562e-03  -1.0056234507839427e+01 -1.4901698575562646e-05 -6.9644978796863828e-07  -1.0057079553327846e+01 -8.1593409782814048e-03 -3.4150392332102674e-03  -1.0056444394944284e+01 -9.9262229970226226e-03 -4.6819344387473193e-03  -1.0055397261132129e+01 -1.0800231729538376e-02 -5.6567732973417002e-03  -1.0054069816942379e+01 -1.1066703227690721e-02 -6.3554727022659980e-03  -1.0064014630976036e+01 -5.1620590269851928e-03 -2.0888723521787214e-03  -1.0061833066110967e+01 -6.4366015190094500e-06 -4.6996807042019039e-07  -1.0063819159508267e+01 -8.6602319327927692e-03 -3.8233041155031210e-03  -1.0063958399999970e+01 -1.0847250295122006e-02 -5.2051509399569087e-03  -1.0063757235494938e+01 -1.2062492615512690e-02 -6.2513320731587630e-03  -1.0063336964838740e+01 -1.2575976203345858e-02 -6.9873357029936840e-03  -1.0070240992022642e+01 -5.0770447390605239e-03 -2.3422819232448333e-03  -1.0067331220931862e+01 -3.1219692788551103e-06 -2.3404943239417365e-07  -1.0070161377556385e+01 -8.7045459837884684e-03 -4.2630419691739533e-03  -1.0070836173308521e+01 -1.1119091863498161e-02 -5.7747665827992080e-03  -1.0076130429977894e+01 -4.8645813796471876e-03 -2.5995354641040634e-03  -1.0072593374891950e+01 -1.4006625241749184e-06 -1.6657496805101032e-09  -1.0076085733776253e+01 -8.4749428327570778e-03 -4.7136561382453918e-03  -1.0077135194664127e+01 -1.0994414295529546e-02 -6.3633792663998203e-03  -1.0046277787104332e+01 -3.0206163322862305e-03 -1.3601652785016538e-03  -1.0040369238498466e+01 -1.4859166351121559e-03 -1.3063986278137490e-03  -1.0044751599880028e+01 7.2174369802917621e-05 -4.4849567918579994e-06  -1.0047264109765182e+01 -1.6580266029798943e-04 -2.1340450141992941e-07  -1.0043721279285593e+01 -4.2299899501346983e-03 -2.5795397804518963e-03  -1.0035028002272316e+01 -1.7284486436560539e-03 -2.4927321060574286e-03  -1.0040112389877608e+01 -4.7715711458902388e-03 -3.6143558859842752e-03  -1.0029032325624906e+01 -1.8329075690855592e-03 -3.5074865842847649e-03  -1.0036148129343866e+01 -4.9017607879103557e-03 -4.4471371127764066e-03  -1.0023003004476944e+01 -1.8227078868786122e-03 -4.3282279780104760e-03  -1.0032066688938269e+01 -4.8282393844008686e-03 -5.0743940388578495e-03  -1.0017175426786963e+01 -1.7561181818550994e-03 -4.9494905467205160e-03  -1.0028047430320669e+01 -4.6320928341045779e-03 -5.5036478230680161e-03  -1.0011667228708172e+01 -1.6593127422499330e-03 -5.3772542429552763e-03  -1.0024192258988080e+01 -4.3636550609402400e-03 -5.7491259115326670e-03  -1.0052714816963787e+01 -4.6640081936877289e-03 -1.4926491588015439e-03  -1.0052414765640240e+01 -5.7141605278402735e-06 -7.5097940942023194e-07  -1.0051532011910961e+01 -7.3374250515142918e-03 -2.7969619603319478e-03  -1.0049669405858973e+01 -8.6432884657651268e-03 -3.8862985734171799e-03  -1.0047356119675262e+01 -9.1671735758568629e-03 -4.7513308912591366e-03  -1.0044774206238959e+01 -9.2229360032498875e-03 -5.3943523740830873e-03  -1.0040855405049554e+01 -8.5540318733764373e-03 -6.2737154360991811e-03  -1.0042092845872425e+01 -8.9831838530518519e-03 -5.8270643083775196e-03  -1.0038249378531127e+01 -8.1395712640029046e-03 -6.5053745774687555e-03  -1.0039416438263189e+01 -8.5595312780069252e-03 -6.0667802853304363e-03  -1.0036819461119540e+01 -8.0203638281285926e-03 -6.1338801739973308e-03  -1.0059436425159078e+01 -5.2444312584471204e-03 -1.6719199498097938e-03  -1.0058062882860105e+01 -1.5660652005929193e-05 -5.8883608699821807e-07  -1.0058920056211422e+01 -8.5172088815543522e-03 -3.1007230635683612e-03  -1.0058243736276168e+01 -1.0381594271597008e-02 -4.2727589702022256e-03  -1.0057148659219752e+01 -1.1315592999834789e-02 -5.1885590021592976e-03  -1.0055778370004830e+01 -1.1612666718038752e-02 -5.8580146798360797e-03  -1.0052559955245030e+01 -1.0930707780833463e-02 -6.8018084311689238e-03  -1.0054233860744318e+01 -1.1484908179085242e-02 -6.2985478604080242e-03  -1.0052597379984157e+01 -1.1073832055688276e-02 -6.5319667244371641e-03  -1.0050936829182287e+01 -1.0473920559339007e-02 -6.5822029221020255e-03  -1.0066175721253877e+01 -5.3938308829372854e-03 -1.8797064182788841e-03  -1.0063893438839710e+01 -6.8557964973703948e-06 -3.9704697525604097e-07  -1.0065940520716268e+01 -9.0613908417013309e-03 -3.4586231417229724e-03  -1.0066067858088035e+01 -1.1365180004961561e-02 -4.7339441599345746e-03  -1.0065852229575423e+01 -1.2654812406329366e-02 -5.7156054765684387e-03  -1.0065427219556229e+01 -1.3208755493671655e-02 -6.4213029993310314e-03  -1.0062717234075283e+01 -1.2595161485953254e-02 -7.4447764077125531e-03  -1.0064812923339169e+01 -1.3241998184302937e-02 -6.8748859686069610e-03  -1.0064061695430208e+01 -1.2907735893318981e-02 -7.1034519405180829e-03  -1.0072686258739244e+01 -5.3181600539783207e-03 -2.1021625341187643e-03  -1.0069634375819422e+01 -3.3529974571126206e-06 -1.8848958844573344e-07  -1.0072569621610407e+01 -9.1261228397769185e-03 -3.8464744632189210e-03  -1.0073256424452351e+01 -1.1668342026222502e-02 -5.2388735509139089e-03  -1.0071237941532585e+01 -1.2578578618992113e-02 -6.9043959170410852e-03  -1.0073670133043285e+01 -1.3211715016341767e-02 -6.2975064228801021e-03  -1.0071508024185826e+01 -1.3308325572980596e-02 -7.6865549743335183e-03  -1.0073967193302920e+01 -1.3989526185549323e-02 -7.0475514122099788e-03  -1.0074095627116856e+01 -1.4193528781027158e-02 -7.5193852074372835e-03  -1.0074078207556532e+01 -1.3973652762619294e-02 -7.7456740711250383e-03  -1.0078861519763473e+01 -5.1059378974281705e-03 -2.3294548187086958e-03  -1.0075140695387512e+01 -1.5032435001219426e-06 2.6495778159282630e-08  -1.0078778783062784e+01 -8.9002947291264914e-03 -4.2463240435710176e-03  -1.0079859818339168e+01 -1.1552874808476396e-02 -5.7635643253517105e-03  -1.0077967744456675e+01 -1.2612523801486693e-02 -7.5842604480114827e-03  -1.0080725417169978e+01 -1.3260773887448948e-02 -6.9063923829284883e-03  -1.0081569628563072e+01 -1.4210429848935172e-02 -7.7068313197021119e-03  -1.0082282361096153e+01 -1.4567297497051625e-02 -8.2014784385811366e-03  -1.0081624691622366e+01 -4.5789714360174455e-03 -2.8524883131563982e-03  -1.0084635178934654e+01 -4.8140235282583587e-03 -2.5543227980739463e-03  -1.0077542559317145e+01 -3.4575183113709769e-07 2.1255427676822564e-07  -1.0080328607666576e+01 -3.5444716160991875e-07 2.3271435489139991e-07  -1.0084539708037466e+01 -8.4910111824089453e-03 -4.6446352756273632e-03  -1.0085906098464383e+01 -1.1150311967435118e-02 -6.2895763122767737e-03  -1.0087098850829227e+01 -1.2938424273168289e-02 -7.5203842068383422e-03  -1.0088356275096915e+01 -1.4003008458801007e-02 -8.3751606335490617e-03  -1.0089972507609170e+01 -4.4749309370991615e-03 -2.7714560747220747e-03  -1.0085149333197874e+01 2.9888579688323174e-07 4.2384212824830819e-07  -1.0082134942035591e+01 2.4352690820940583e-07 4.0364321042663692e-07  -1.0089838892431715e+01 -7.9652922975749028e-03 -5.0313527519642749e-03  -1.0094857313191666e+01 -4.1090037311093978e-03 -2.9770264749799475e-03  -1.0089575978191906e+01 6.6237646667777276e-07 5.9692128534848108e-07  -1.0047590921379248e+01 -3.1060888044835734e-03 -1.2221927079892414e-03  -1.0041565533140362e+01 -1.5226993407083703e-03 -1.1763360254858893e-03  -1.0046003861428904e+01 7.4886400518637367e-05 -4.5384815751397346e-06  -1.0048567172405004e+01 -1.6985346825274414e-04 -5.3705631723154064e-08  -1.0044938165647844e+01 -4.3639282317992521e-03 -2.3246274968204139e-03  -1.0036083781572126e+01 -1.7796645294747800e-03 -2.2501581991338907e-03  -1.0041213341326028e+01 -4.9369474031717613e-03 -3.2675857220371054e-03  -1.0029914066424876e+01 -1.8937908417263336e-03 -3.1753838659103646e-03  -1.0037118620769482e+01 -5.0845103200800566e-03 -4.0340705545455413e-03  -1.0023697819819947e+01 -1.8887342063163811e-03 -3.9308380085441210e-03  -1.0032904750347702e+01 -5.0189425036301716e-03 -4.6187985006493591e-03  -1.0017683082983462e+01 -1.8241339133457076e-03 -4.5097011143238209e-03  -1.0028758808598187e+01 -4.8236676318361470e-03 -5.0262931124132673e-03  -1.0011996250330107e+01 -1.7270361404451433e-03 -4.9152427691455912e-03  -1.0024787411957123e+01 -4.5508774413282101e-03 -5.2673119718782387e-03  -1.0054195587275009e+01 -4.8110486298536250e-03 -1.3355543311946978e-03  -1.0053865413222960e+01 -6.1271804625357492e-06 -6.4877984017612406e-07  -1.0052946615454241e+01 -7.5871619597418774e-03 -2.5113671145780745e-03  -1.0051011758617895e+01 -8.9587196715027340e-03 -3.5024437990047110e-03  -1.0048612951335015e+01 -9.5218545570761367e-03 -4.2982295788004145e-03  -1.0045945012094551e+01 -9.5973801302494735e-03 -4.8981743711069316e-03  -1.0043182597602451e+01 -9.3625296062464069e-03 -5.3102018685992711e-03  -1.0040433855089899e+01 -8.9326823476859624e-03 -5.5475861754493098e-03  -1.0037775086659456e+01 -8.3790764201711991e-03 -5.6268549412852899e-03  -1.0061125176762573e+01 -5.4263646516252559e-03 -1.4894971270464736e-03  -1.0059692169621325e+01 -1.6320900017757908e-05 -5.1492056228083979e-07  -1.0060561258828344e+01 -8.8283476615334134e-03 -2.7734822312534850e-03  -1.0059843959553717e+01 -1.0779512735818184e-02 -3.8375727089892176e-03  -1.0058698796560723e+01 -1.1768274468934350e-02 -4.6792889018278687e-03  -1.0057281090238568e+01 -1.2094727538243926e-02 -5.3043208449361562e-03  -1.0055694905894883e+01 -1.1976725469429090e-02 -5.7252443283940767e-03  -1.0054025119738920e+01 -1.1560393472580980e-02 -5.9590242996094191e-03  -1.0052340484919005e+01 -1.0943868953742514e-02 -6.0251398230127982e-03  -1.0068099378672230e+01 -5.5955965362681302e-03 -1.6689218727173011e-03  -1.0065723569929659e+01 -7.2300707783309876e-06 -3.5643545967564141e-07  -1.0067824054172004e+01 -9.4121258376411027e-03 -3.0838326697161301e-03  -1.0067934915329600e+01 -1.1820104076210295e-02 -4.2392671980029375e-03  -1.0067697318869238e+01 -1.3177571949267377e-02 -5.1404859840364775e-03  -1.0067256903941050e+01 -1.3769913019091596e-02 -5.7995414932224525e-03  -1.0066634699072862e+01 -1.3818319694830727e-02 -6.2342639337652972e-03  -1.0065884537687156e+01 -1.3481036198649031e-02 -6.4659810080250285e-03  -1.0065054560404368e+01 -1.2873103796650496e-02 -6.5177503965569150e-03  -1.0064186201632078e+01 -1.2077165040030730e-02 -6.4128597371924893e-03  -1.0074856942743684e+01 -5.5293077139273910e-03 -1.8620341827058700e-03  -1.0071675877380128e+01 -3.5670615553928320e-06 -1.7729944079899412e-07  -1.0074702292400598e+01 -9.4967812311671871e-03 -3.4218263384784456e-03  -1.0075392697747935e+01 -1.2153304331831727e-02 -4.6811030532901178e-03  -1.0075806568760308e+01 -1.3773200351876996e-02 -5.6518550396133186e-03  -1.0076114829925325e+01 -1.4596297595606267e-02 -6.3522529494293009e-03  -1.0076264162160964e+01 -1.4820291070504256e-02 -6.8054913802322930e-03  -1.0076277836723150e+01 -1.4600236354115292e-02 -7.0375083247085982e-03  -1.0076178300321036e+01 -1.4055536725228432e-02 -7.0752603139223090e-03  -1.0081282242288355e+01 -5.3185144142019920e-03 -2.0603893098495576e-03  -1.0077395942802131e+01 -1.6058400234682671e-06 1.4944651954254054e-08  -1.0081160327154151e+01 -9.2763097310919577e-03 -3.7720100077681456e-03  -1.0082261420829759e+01 -1.2048474060425175e-02 -5.1423581075911119e-03  -1.0083144835936714e+01 -1.3838359868878720e-02 -6.1892230305873961e-03  -1.0084022482443176e+01 -1.4838249823587620e-02 -6.9363938322406738e-03  -1.0084780624541075e+01 -1.5219147434468699e-02 -7.4121958276558647e-03  -1.0082861809681313e+01 -1.4469250622428700e-02 -8.4284983612789004e-03  -1.0085417258270768e+01 -1.5123896267300138e-02 -7.6471400677347694e-03  -1.0085929694152231e+01 -1.4667809687910534e-02 -7.6721588982160902e-03  -1.0087301795240853e+01 -5.0221758461203737e-03 -2.2576286949427342e-03  -1.0082793938205890e+01 -3.7357194336665307e-07 2.0544983492001546e-07  -1.0087163944460336e+01 -8.8613955490252951e-03 -4.1225225230663853e-03  -1.0088564174792650e+01 -1.1641337705984767e-02 -5.6068540232287814e-03  -1.0089789014754119e+01 -1.3513759032460835e-02 -6.7333550796986504e-03  -1.0091098487162963e+01 -1.4631491711746023e-02 -7.5308222123027070e-03  -1.0092332831970602e+01 -1.5137749027703960e-02 -8.0323215145341187e-03  -1.0093471062054540e+01 -1.5158220687009413e-02 -8.2727177992652137e-03  -1.0094488478730721e+01 -1.4799157964283719e-02 -8.2868174203655810e-03  -1.0092875645401310e+01 -4.6743440407767504e-03 -2.4489992761958634e-03  -1.0087816593647169e+01 3.3849152849957039e-07 3.8746285672570478e-07  -1.0092695270977281e+01 -8.3218214118441890e-03 -4.4643812300600013e-03  -1.0091415883153640e+01 -1.0556432627862204e-02 -6.8029479203008279e-03  -1.0094317771992353e+01 -1.1031360976186637e-02 -6.0621252701282356e-03  -1.0095792153941277e+01 -1.2916968009885309e-02 -7.2691554576133745e-03  -1.0097429186570297e+01 -1.4098909203359140e-02 -8.1186613681682087e-03  -1.0099034117284162e+01 -1.4694886009830821e-02 -8.6479876432760949e-03  -1.0097983814561502e+01 -4.2965534739207280e-03 -2.6309860644174940e-03  -1.0092433744228922e+01 7.4226645119170265e-07 5.5699881427018324e-07  -1.0094671673931572e+01 -7.3670190213878540e-03 -5.3991059032606143e-03  -1.0097746400616542e+01 -7.7036510358764135e-03 -4.7908504433106756e-03  -1.0096406537854923e+01 -9.8356868363011565e-03 -7.2932634522039326e-03  -1.0099536729377462e+01 -1.0285904943006446e-02 -6.4986823514184026e-03  -1.0101194401569165e+01 -1.2129451025613056e-02 -7.7849531541408692e-03  -1.0102618892887838e+01 -3.9026183073912210e-03 -2.8010359368939243e-03  -1.0096629790943988e+01 9.4357712538719844e-07 7.1229041026062017e-07  -1.0102317121321130e+01 -7.0373394998109748e-03 -5.0969669551465587e-03  -1.0104235876159695e+01 -9.4514252575906704e-03 -6.9094272411239265e-03  -1.0106028465139536e+01 -1.1210312890202249e-02 -8.2718817714899293e-03  -1.0048760903641417e+01 -3.1786144651592186e-03 -1.0781890514779632e-03  -1.0042635679959998e+01 -1.5538042453070748e-03 -1.0394722638283058e-03  -1.0047115129702380e+01 7.7167354965548127e-05 -4.5742726913001382e-06  -1.0049719025714429e+01 -1.7327947930290737e-04 6.4745600322567995e-08  -1.0046022271662816e+01 -4.4780707227451925e-03 -2.0555996238891990e-03  -1.0037033313844384e+01 -1.8231823342949758e-03 -1.9924145013337259e-03  -1.0042195920359989e+01 -5.0785295180146121e-03 -2.8968887982543314e-03  -1.0030713101827642e+01 -1.9457726886361500e-03 -2.8183087284618029e-03  -1.0037985156913713e+01 -5.2417116028545549e-03 -3.5863049500345799e-03  -1.0024333613973891e+01 -1.9453845705134747e-03 -3.4978705497595687e-03  -1.0033652028442846e+01 -5.1837673047080918e-03 -4.1177052040631771e-03  -1.0018153664183403e+01 -1.8827771021863793e-03 -4.0237793960563621e-03  -1.0029390495919614e+01 -4.9900181447618194e-03 -4.4934977941876288e-03  -1.0012307455430834e+01 -1.7857059442767849e-03 -4.3974239359605054e-03  -1.0025311619692584e+01 -4.7141747949598330e-03 -4.72168083