<?xml version="1.0"?>
<VTKFile type="UnstructuredGrid"  version="0.1"  >
<UnstructuredGrid>
<Piece  NumberOfPoints="7448" NumberOfCells="37197">
<Points>
<DataArray  type="Float64"  NumberOfComponents="3"  format="ascii">0.625 0 0.35  0.65 0 0.35  0.65 0 0.375  0.65 0.025 0.375  0.625 0 0.375  0.675 0 0.35  0.675 0 0.375  0.675 0.025 0.375  0.7 0 0.35  0.7 0 0.375  0.7 0.025 0.375  0.725 0 0.35  0.725 0 0.375  0.725 0.025 0.375  0.75 0 0.35  0.75 0 0.375  0.75 0.025 0.375  0.775 0 0.375  0.775 0.025 0.375  0.65 0.025 0.4  0.65 0 0.4  0.625 0 0.4  0.675 0.025 0.4  0.675 0 0.4  0.7 0.025 0.4  0.7 0 0.4  0.725 0.025 0.4  0.725 0 0.4  0.75 0.025 0.4  0.75 0 0.4  0.775 0.025 0.4  0.775 0 0.4  0.8 0 0.375  0.8 0 0.4  0.8 0.025 0.4  0.825 0 0.375  0.825 0 0.4  0.825 0.025 0.4  0.85 0 0.375  0.85 0 0.4  0.85 0.025 0.4  0.875 0 0.4  0.875 0.025 0.4  0.675 0.05 0.4  0.7 0.05 0.4  0.725 0.05 0.4  0.75 0.05 0.4  0.775 0.05 0.4  0.8 0.05 0.4  0.65 0.025 0.425  0.65 0 0.425  0.675 0.025 0.425  0.675 0 0.425  0.7 0.025 0.425  0.7 0 0.425  0.725 0.025 0.425  0.725 0 0.425  0.75 0.025 0.425  0.75 0 0.425  0.775 0.025 0.425  0.775 0 0.425  0.8 0.025 0.425  0.8 0 0.425  0.825 0.025 0.425  0.825 0 0.425  0.85 0.025 0.425  0.85 0 0.425  0.875 0.025 0.425  0.875 0 0.425  0.9 0 0.4  0.9 0.025 0.4  0.9 0.025 0.425  0.9 0 0.425  0.925 0 0.4  0.925 0 0.425  0.925 0.025 0.425  0.95 0 0.4  0.95 0 0.425  0.95 0.025 0.425  0.975 0 0.4  0.975 0 0.425  0.975 0.025 0.425  1 0 0.425  1 0.025 0.425  0.675 0.05 0.425  0.7 0.05 0.425  0.725 0.05 0.425  0.75 0.05 0.425  0.775 0.05 0.425  0.8 0.05 0.425  0.825 0.05 0.425  0.85 0.05 0.425  0.875 0.05 0.425  0.9 0.05 0.425  0.925 0.05 0.425  0.7 0.075 0.4  0.7 0.075 0.425  0.725 0.075 0.4  0.725 0.075 0.425  0.75 0.075 0.4  0.75 0.075 0.425  0.775 0.075 0.4  0.775 0.075 0.425  0.8 0.075 0.425  0.825 0.075 0.425  0.725 0.1 0.425  0.75 0.1 0.425  0.775 0.1 0.425  0.8 0.1 0.425  0.675 0.025 0.45  0.675 0 0.45  0.65 0 0.45  0.7 0.025 0.45  0.7 0 0.45  0.725 0.025 0.45  0.725 0 0.45  0.75 0.025 0.45  0.75 0 0.45  0.775 0.025 0.45  0.775 0 0.45  0.8 0.025 0.45  0.8 0 0.45  0.825 0.025 0.45  0.825 0 0.45  0.85 0.025 0.45  0.85 0 0.45  0.875 0.025 0.45  0.875 0 0.45  0.9 0.025 0.45  0.9 0 0.45  0.925 0.025 0.45  0.925 0 0.45  0.95 0.025 0.45  0.95 0 0.45  0.975 0.025 0.45  0.975 0 0.45  1 0.025 0.45  1 0 0.45  0.7 0.05 0.45  0.725 0.05 0.45  0.75 0.05 0.45  0.775 0.05 0.45  0.8 0.05 0.45  0.825 0.05 0.45  0.85 0.05 0.45  0.875 0.05 0.45  0.9 0.05 0.45  0.925 0.05 0.45  0.95 0.05 0.425  0.95 0.05 0.45  0.975 0.05 0.45  1 0.05 0.45  0.725 0.075 0.45  0.75 0.075 0.45  0.775 0.075 0.45  0.8 0.075 0.45  0.825 0.075 0.45  0.85 0.075 0.45  0.875 0.075 0.45  0.9 0.075 0.45  0.925 0.075 0.45  0.95 0.075 0.45  0.975 0.075 0.45  0.75 0.1 0.45  0.775 0.1 0.45  0.8 0.1 0.45  0.825 0.1 0.45  0.85 0.1 0.45  0.775 0.125 0.425  0.775 0.125 0.45  0.75 0.125 0.425  0.8 0.125 0.425  0.8 0.125 0.45  0.825 0.125 0.45  0.775 0.15 0.45  0.8 0.15 0.45  0.825 0.15 0.45  0.675 0.025 0.475  0.675 0 0.475  0.65 0 0.475  0.65 0.025 0.475  0.7 0.025 0.475  0.7 0 0.475  0.725 0.025 0.475  0.725 0 0.475  0.75 0.025 0.475  0.75 0 0.475  0.775 0.025 0.475  0.775 0 0.475  0.8 0.025 0.475  0.8 0 0.475  0.825 0.025 0.475  0.825 0 0.475  0.85 0.025 0.475  0.85 0 0.475  0.875 0.025 0.475  0.875 0 0.475  0.9 0.025 0.475  0.9 0 0.475  0.925 0.025 0.475  0.925 0 0.475  0.95 0.025 0.475  0.95 0 0.475  0.975 0.025 0.475  0.975 0 0.475  1 0.025 0.475  1 0 0.475  0.7 0.05 0.475  0.725 0.05 0.475  0.75 0.05 0.475  0.775 0.05 0.475  0.8 0.05 0.475  0.825 0.05 0.475  0.85 0.05 0.475  0.875 0.05 0.475  0.9 0.05 0.475  0.925 0.05 0.475  0.95 0.05 0.475  0.975 0.05 0.475  1 0.05 0.475  0.725 0.075 0.475  0.75 0.075 0.475  0.775 0.075 0.475  0.8 0.075 0.475  0.825 0.075 0.475  0.85 0.075 0.475  0.875 0.075 0.475  0.9 0.075 0.475  0.925 0.075 0.475  0.95 0.075 0.475  0.975 0.075 0.475  1 0.075 0.45  1 0.075 0.475  0.75 0.1 0.475  0.775 0.1 0.475  0.8 0.1 0.475  0.825 0.1 0.475  0.85 0.1 0.475  0.875 0.1 0.45  0.875 0.1 0.475  0.9 0.1 0.475  0.925 0.1 0.475  0.95 0.1 0.475  0.975 0.1 0.475  1 0.1 0.475  0.775 0.125 0.475  0.8 0.125 0.475  0.825 0.125 0.475  0.85 0.125 0.45  0.85 0.125 0.475  0.875 0.125 0.45  0.875 0.125 0.475  0.9 0.125 0.475  0.8 0.15 0.475  0.825 0.15 0.475  0.85 0.15 0.45  0.85 0.15 0.475  0.875 0.15 0.475  0.9 0.15 0.475  0.825 0.175 0.475  0.85 0.175 0.475  0.875 0.175 0.475  0.6 0 0.475  0.625 0 0.475  0.625 0 0.5  0.625 0.025 0.5  0.6 0 0.5  0.65 0.025 0.5  0.65 0 0.5  0.675 0.025 0.5  0.675 0 0.5  0.7 0.025 0.5  0.7 0 0.5  0.725 0.025 0.5  0.725 0 0.5  0.75 0.025 0.5  0.75 0 0.5  0.775 0.025 0.5  0.775 0 0.5  0.8 0.025 0.5  0.8 0 0.5  0.825 0.025 0.5  0.825 0 0.5  0.85 0.025 0.5  0.85 0 0.5  0.875 0.025 0.5  0.875 0 0.5  0.9 0.025 0.5  0.9 0 0.5  0.925 0.025 0.5  0.925 0 0.5  0.95 0.025 0.5  0.95 0 0.5  0.975 0.025 0.5  0.975 0 0.5  1 0.025 0.5  1 0 0.5  0.675 0.05 0.5  0.7 0.05 0.5  0.725 0.05 0.5  0.75 0.05 0.5  0.775 0.05 0.5  0.8 0.05 0.5  0.825 0.05 0.5  0.85 0.05 0.5  0.875 0.05 0.5  0.9 0.05 0.5  0.925 0.05 0.5  0.95 0.05 0.5  0.975 0.05 0.5  1 0.05 0.5  0.725 0.075 0.5  0.75 0.075 0.5  0.775 0.075 0.5  0.8 0.075 0.5  0.825 0.075 0.5  0.85 0.075 0.5  0.875 0.075 0.5  0.9 0.075 0.5  0.925 0.075 0.5  0.95 0.075 0.5  0.975 0.075 0.5  1 0.075 0.5  0.75 0.1 0.5  0.775 0.1 0.5  0.8 0.1 0.5  0.825 0.1 0.5  0.85 0.1 0.5  0.875 0.1 0.5  0.9 0.1 0.5  0.925 0.1 0.5  0.95 0.1 0.5  0.975 0.1 0.5  1 0.1 0.5  0.775 0.125 0.5  0.8 0.125 0.5  0.825 0.125 0.5  0.85 0.125 0.5  0.875 0.125 0.5  0.9 0.125 0.5  0.925 0.125 0.475  0.925 0.125 0.5  0.95 0.125 0.475  0.95 0.125 0.5  0.975 0.125 0.475  0.975 0.125 0.5  1 0.125 0.475  1 0.125 0.5  0.8 0.15 0.5  0.825 0.15 0.5  0.85 0.15 0.5  0.875 0.15 0.5  0.9 0.15 0.5  0.925 0.15 0.475  0.925 0.15 0.5  0.95 0.15 0.5  0.975 0.15 0.5  1 0.15 0.5  0.825 0.175 0.5  0.85 0.175 0.5  0.875 0.175 0.5  0.9 0.175 0.475  0.9 0.175 0.5  0.925 0.175 0.5  0.95 0.175 0.5  0.85 0.2 0.5  0.875 0.2 0.5  0.9 0.2 0.5  0.925 0.2 0.5  0.2 0 0.5  0.225 0 0.5  0.225 0 0.525  0.225 0.025 0.525  0.25 0 0.5  0.25 0.025 0.5  0.25 0.025 0.525  0.25 0 0.525  0.225 0.025 0.5  0.275 0 0.5  0.275 0.025 0.5  0.275 0.025 0.525  0.275 0 0.525  0.3 0 0.5  0.3 0 0.525  0.3 0.025 0.525  0.325 0 0.5  0.325 0 0.525  0.325 0.025 0.525  0.35 0 0.525  0.35 0.025 0.525  0.575 0 0.5  0.6 0 0.525  0.6 0.025 0.525  0.575 0 0.525  0.575 0.025 0.525  0.625 0.025 0.525  0.625 0 0.525  0.6 0.025 0.5  0.65 0.025 0.525  0.65 0 0.525  0.675 0.025 0.525  0.675 0 0.525  0.7 0.025 0.525  0.7 0 0.525  0.725 0.025 0.525  0.725 0 0.525  0.75 0.025 0.525  0.75 0 0.525  0.775 0.025 0.525  0.775 0 0.525  0.8 0.025 0.525  0.8 0 0.525  0.825 0.025 0.525  0.825 0 0.525  0.85 0.025 0.525  0.85 0 0.525  0.875 0.025 0.525  0.875 0 0.525  0.9 0.025 0.525  0.9 0 0.525  0.925 0.025 0.525  0.925 0 0.525  0.95 0.025 0.525  0.95 0 0.525  0.975 0.025 0.525  0.975 0 0.525  1 0.025 0.525  1 0 0.525  0.25 0.05 0.525  0.275 0.05 0.525  0.3 0.05 0.525  0.625 0.05 0.5  0.625 0.05 0.525  0.65 0.05 0.5  0.65 0.05 0.525  0.675 0.05 0.525  0.7 0.05 0.525  0.725 0.05 0.525  0.75 0.05 0.525  0.775 0.05 0.525  0.8 0.05 0.525  0.825 0.05 0.525  0.85 0.05 0.525  0.875 0.05 0.525  0.9 0.05 0.525  0.925 0.05 0.525  0.95 0.05 0.525  0.975 0.05 0.525  1 0.05 0.525  0.65 0.075 0.525  0.675 0.075 0.525  0.7 0.075 0.525  0.725 0.075 0.525  0.75 0.075 0.525  0.775 0.075 0.525  0.8 0.075 0.525  0.825 0.075 0.525  0.85 0.075 0.525  0.875 0.075 0.525  0.9 0.075 0.525  0.925 0.075 0.525  0.95 0.075 0.525  0.975 0.075 0.525  1 0.075 0.525  0.75 0.1 0.525  0.725 0.1 0.525  0.775 0.1 0.525  0.8 0.1 0.525  0.825 0.1 0.525  0.85 0.1 0.525  0.875 0.1 0.525  0.9 0.1 0.525  0.925 0.1 0.525  0.95 0.1 0.525  0.975 0.1 0.525  1 0.1 0.525  0.775 0.125 0.525  0.8 0.125 0.525  0.825 0.125 0.525  0.85 0.125 0.525  0.875 0.125 0.525  0.9 0.125 0.525  0.925 0.125 0.525  0.95 0.125 0.525  0.975 0.125 0.525  1 0.125 0.525  0.8 0.15 0.525  0.825 0.15 0.525  0.85 0.15 0.525  0.875 0.15 0.525  0.9 0.15 0.525  0.925 0.15 0.525  0.95 0.15 0.525  0.975 0.15 0.525  1 0.15 0.525  0.825 0.175 0.525  0.85 0.175 0.525  0.875 0.175 0.525  0.9 0.175 0.525  0.925 0.175 0.525  0.95 0.175 0.525  0.975 0.175 0.5  0.975 0.175 0.525  1 0.175 0.525  0.85 0.2 0.525  0.875 0.2 0.525  0.9 0.2 0.525  0.925 0.2 0.525  0.95 0.2 0.5  0.95 0.2 0.525  0.975 0.2 0.525  1 0.2 0.525  0.875 0.225 0.5  0.875 0.225 0.525  0.9 0.225 0.5  0.9 0.225 0.525  0.925 0.225 0.5  0.925 0.225 0.525  0.95 0.225 0.5  0.95 0.225 0.525  0.975 0.225 0.525  0.9 0.25 0.5  0.9 0.25 0.525  0.925 0.25 0.5  0.925 0.25 0.525  0.95 0.25 0.525  0.975 0.25 0.525  0.925 0.275 0.525  0.95 0.275 0.525  0.25 0.025 0.55  0.25 0 0.55  0.225 0 0.55  0.275 0.025 0.55  0.275 0 0.55  0.3 0.025 0.55  0.3 0 0.55  0.325 0.025 0.55  0.325 0 0.55  0.35 0.025 0.55  0.35 0 0.55  0.375 0 0.525  0.375 0 0.55  0.375 0.025 0.55  0.4 0 0.525  0.4 0 0.55  0.4 0.025 0.55  0.425 0 0.525  0.425 0 0.55  0.425 0.025 0.55  0.45 0 0.525  0.45 0 0.55  0.45 0.025 0.55  0.475 0 0.525  0.475 0 0.55  0.475 0.025 0.55  0.5 0 0.525  0.5 0 0.55  0.5 0.025 0.55  0.525 0 0.525  0.525 0 0.55  0.525 0.025 0.55  0.55 0 0.525  0.55 0 0.55  0.55 0.025 0.55  0.575 0.025 0.55  0.575 0 0.55  0.6 0.025 0.55  0.6 0 0.55  0.625 0.025 0.55  0.625 0 0.55  0.65 0.025 0.55  0.65 0 0.55  0.675 0.025 0.55  0.675 0 0.55  0.7 0.025 0.55  0.7 0 0.55  0.725 0.025 0.55  0.725 0 0.55  0.75 0.025 0.55  0.75 0 0.55  0.775 0.025 0.55  0.775 0 0.55  0.8 0.025 0.55  0.8 0 0.55  0.825 0.025 0.55  0.825 0 0.55  0.85 0.025 0.55  0.85 0 0.55  0.875 0.025 0.55  0.875 0 0.55  0.9 0.025 0.55  0.9 0 0.55  0.925 0.025 0.55  0.925 0 0.55  0.95 0.025 0.55  0.95 0 0.55  0.975 0.025 0.55  0.975 0 0.55  1 0.025 0.55  1 0 0.55  0.25 0.05 0.55  0.275 0.05 0.55  0.3 0.05 0.55  0.325 0.05 0.55  0.35 0.05 0.55  0.375 0.05 0.55  0.6 0.05 0.55  0.625 0.05 0.55  0.65 0.05 0.55  0.675 0.05 0.55  0.7 0.05 0.55  0.725 0.05 0.55  0.75 0.05 0.55  0.775 0.05 0.55  0.8 0.05 0.55 
[...]
<PointData  Vectors="f_131"> 
<DataArray  type="Float64"  Name="f_131"  NumberOfComponents="3" format="ascii">-9.9786312581190924e+00 6.3388265730862029e-04 2.3729386513967926e-03  -9.9806877664282183e+00 7.6597628473897960e-04 2.7879111108947206e-03  -9.9803208319034269e+00 7.8753749054370434e-04 2.3677029566143907e-03  -1.0005052283435621e+01 2.3093693745077693e-03 2.4057555313582715e-03  -9.9782305045092468e+00 6.5190692010308742e-04 2.0151550247531689e-03  -9.9831485103666573e+00 9.0053812527879742e-04 3.1626116740624357e-03  -9.9828235403065815e+00 9.2557033896588402e-04 2.6850814703045260e-03  -1.0007074992785554e+01 2.7051171298759741e-03 2.7290507237212780e-03  -9.9860272292905918e+00 1.0375113352597378e-03 3.4878428579928583e-03  -9.9857531773131161e+00 1.0659069908171806e-03 2.9594250662644123e-03  -1.0009431118430046e+01 3.1033372271423660e-03 3.0089657551864981e-03  -9.9893383863651959e+00 1.1765408177787377e-03 3.7535047183881354e-03  -9.9891249786660836e+00 1.2081349065269482e-03 3.1821724360566344e-03  -1.0012126400641156e+01 3.5015392822457165e-03 3.2368242922837125e-03  -9.9930960901672830e+00 1.3168503952356364e-03 3.9486692663506092e-03  -9.9929536972269926e+00 1.3514012331262164e-03 3.3441496460513490e-03  -1.0015164047866055e+01 3.8955503031065518e-03 3.4033104702324837e-03  -9.9972523331949255e+00 1.4942274798782351e-03 3.4357512143399120e-03  -1.0018542828221987e+01 4.2788096097589861e-03 3.4986462237149530e-03  -1.0005053469537977e+01 2.3604698128344807e-03 1.9457496665529670e-03  -9.9800158945412498e+00 8.0519707894038007e-04 1.9151123978313998e-03  -9.9778966946088108e+00 6.6668630087950804e-04 1.6289511665884557e-03  -1.0007101071048707e+01 2.7643222206098681e-03 2.2075041640361695e-03  -9.9825543148972375e+00 9.4604550499435987e-04 2.1721365696116346e-03  -1.0009487814628496e+01 3.1703138260338521e-03 2.4334148503311836e-03  -9.9855271240971888e+00 1.0890975525911866e-03 2.3936147557403627e-03  -1.0012220006682947e+01 3.5758065247739738e-03 2.6164625445542784e-03  -9.9889501335368429e+00 1.2338926048793670e-03 2.5726215088268407e-03  -1.0015301311609754e+01 3.9764348723946253e-03 2.7491709394565655e-03  -9.9928385492345893e+00 1.3795146735496660e-03 2.7017945653916619e-03  -1.0018730748336433e+01 4.3653925148711146e-03 2.8237626401975296e-03  -9.9972055992699236e+00 1.5244042225012358e-03 2.7734933663493958e-03  -1.0002028525909299e+01 1.6342289053335552e-03 3.4472445017390226e-03  -1.0002058815717369e+01 1.6660742200396558e-03 2.7800547904117548e-03  -1.0022499088290777e+01 4.7323491126806463e-03 2.8324121768051346e-03  -1.0007285227931698e+01 1.7676686432581982e-03 3.3692238647267470e-03  -1.0007400527655070e+01 1.8006600272558505e-03 2.7141642183385935e-03  -1.0026586026868586e+01 5.0617324784117054e-03 2.7676140661799290e-03  -1.0012999764607390e+01 1.8887437975243357e-03 3.1932450947969428e-03  -1.0013206866473068e+01 1.9221996456451494e-03 2.5693632341254077e-03  -1.0030946724926666e+01 5.3298495541649451e-03 2.6226845106861497e-03  -1.0019471532727563e+01 2.0209458372624409e-03 2.3407047850418829e-03  -1.0035524566142715e+01 5.4998615162384513e-03 2.3924076335237539e-03  -1.0029025513316517e+01 5.5268253816833316e-03 2.2947135289168772e-03  -1.0030828815512825e+01 6.3282763888552638e-03 2.5317399824868682e-03  -1.0032878137307065e+01 7.1205550730217421e-03 2.7250455535531241e-03  -1.0035168427387529e+01 7.8927254308400994e-03 2.8668674668117598e-03  -1.0037688752208828e+01 8.6284038152800724e-03 2.9490732144338604e-03  -1.0040418537093579e+01 9.3034643568417046e-03 2.9634025581898060e-03  -1.0005046763482442e+01 2.4001039095159792e-03 1.4607632591426140e-03  -9.9797760134470188e+00 8.1892771339977101e-04 1.4376910924360530e-03  -1.0007114599901366e+01 2.8102126820523958e-03 1.6587437920465419e-03  -9.9823429983848033e+00 9.6194780664545648e-04 1.6321196724262297e-03  -1.0009526126259789e+01 3.2221826333838216e-03 1.8292666013192235e-03  -9.9853502427817098e+00 1.1070860493437699e-03 1.7993264302036049e-03  -1.0012288057028453e+01 3.6332597679850282e-03 1.9670379536923443e-03  -9.9888139682512840e+00 1.2538438433074180e-03 1.9340888438229523e-03  -1.0015404369083271e+01 4.0389293052294989e-03 2.0664544762347896e-03  -9.9927496858662082e+00 1.4012559420658861e-03 2.0308892688374268e-03  -1.0018874223841360e+01 4.4321960751357936e-03 2.1217275230962576e-03  -9.9971707425735374e+00 1.5477002541924058e-03 2.0840408891553358e-03  -1.0022688284201443e+01 4.8024943502077899e-03 2.1270790805653825e-03  -1.0002084525348733e+01 1.6906115216123617e-03 2.0878853947347330e-03  -1.0026825763450066e+01 5.1339609196692842e-03 2.0770210380891630e-03  -1.0007492800935957e+01 1.8260281719183558e-03 2.0370741413700891e-03  -1.0031240916137865e+01 5.4025429684681717e-03 1.9667301157471197e-03  -1.0013370743520412e+01 1.9478681442737969e-03 1.9269475300248335e-03  -1.0035875465948248e+01 5.5709519385518666e-03 1.7925232233175039e-03  -1.0019710102856886e+01 2.0462320559689151e-03 1.7540165965369405e-03  -1.0026009633938070e+01 2.0827530456720158e-03 2.0255964422263096e-03  -1.0040148658097211e+01 5.5117327393768263e-03 2.0738568481857189e-03  -1.0040556577446102e+01 5.5785716274322442e-03 1.5524589057139217e-03  -1.0026324383589429e+01 2.1067851942871731e-03 1.5165801069754177e-03  -1.0033026603307388e+01 2.0699608578547968e-03 1.6248156098786503e-03  -1.0033412467527018e+01 2.0915382204845442e-03 1.2154539891141131e-03  -1.0045269967345829e+01 5.3205283626430898e-03 1.2470294734524281e-03  -1.0039182693828186e+01 1.9389966011569249e-03 1.1440725251182008e-03  -1.0039640865303985e+01 1.9565816498759683e-03 8.5514906384585561e-04  -1.0049044718552246e+01 4.6147495819541667e-03 8.8001248361318455e-04  -1.0046984369992311e+01 1.4733878098977990e-03 5.9358517611809080e-04  -1.0047469781180325e+01 1.4846008077932270e-03 4.4298111926347497e-04  -1.0053512375352001e+01 2.9878612015538973e-03 4.6000220717283427e-04  -1.0048178307113377e+01 -6.9897285106149262e-04 8.8856243618181558e-06  -1.0050871358514984e+01 -8.2407494359629688e-05 -8.7589981473162991e-07  -1.0029257724555283e+01 5.6203456759324737e-03 1.7241136577158820e-03  -1.0031076455004351e+01 6.4339662275480700e-03 1.9029211195895023e-03  -1.0033144968914213e+01 7.2375561852111225e-03 2.0483072819532833e-03  -1.0035458573956520e+01 8.0198655629230842e-03 2.1544541624787432e-03  -1.0038006545929822e+01 8.7641156669506608e-03 2.2153092877573600e-03  -1.0040768297647759e+01 9.4456905551145356e-03 2.2247740655546586e-03  -1.0043711571851812e+01 1.0028594445918063e-02 2.1769734165668448e-03  -1.0046776905135992e+01 1.0459834406733650e-02 2.0666168412734852e-03  -1.0049902970711392e+01 1.0660031340799831e-02 1.8894501301467490e-03  -1.0052893314223937e+01 1.0507506905676778e-02 1.6428161502003969e-03  -1.0055834488137046e+01 9.8096226150866331e-03 1.3262324082648797e-03  -1.0049784711806234e+01 8.4753218423250891e-03 2.6779522382966380e-03  -1.0050234377825612e+01 8.6167332949859989e-03 2.0125517512099298e-03  -1.0051177560665327e+01 9.4979554325965148e-03 2.8864412821012612e-03  -1.0051636391074542e+01 9.6541334492719726e-03 2.1692250293371021e-03  -1.0052715060638382e+01 1.0476949099438306e-02 3.0416862931130920e-03  -1.0053186200577592e+01 1.0646199381230544e-02 2.2853007069948117e-03  -1.0054380942596747e+01 1.1386279209151248e-02 3.1350048995850443e-03  -1.0054867852663783e+01 1.1566362903426023e-02 2.3543174488365420e-03  -1.0056656251291978e+01 1.2376868847784465e-02 2.3696796524591587e-03  -1.0058516520599158e+01 1.3024239242888681e-02 2.3249132895725075e-03  -1.0068002263917954e+01 1.1547693318903257e-02 2.3207784453508698e-03  -1.0068843717688502e+01 1.2678521326661548e-02 2.4490310593795117e-03  -1.0069733028710063e+01 1.3701015114767501e-02 2.5279139836122929e-03  -1.0070646468551294e+01 1.4566187696348600e-02 2.5501967250001669e-03  -1.0007120785769473e+01 2.8427531705893369e-03 1.0903547039064925e-03  -9.9821911362692095e+00 9.7327559136070781e-04 1.0725646940266400e-03  -9.9796034254136838e+00 8.2871744805139555e-04 9.4231102480765109e-04  -1.0009550416456440e+01 3.2589479065112509e-03 1.2045480671041826e-03  -9.9852233199674103e+00 1.1198865573009765e-03 1.1845397013127874e-03  -1.0012334006792777e+01 3.6739592536343423e-03 1.2967760646751343e-03  -9.9887164693766870e+00 1.2680242890314643e-03 1.2747606955358318e-03  -1.0015475733404145e+01 4.0831664328370258e-03 1.3633258949430221e-03  -9.9926862873192732e+00 1.4166882551452248e-03 1.3395722028144129e-03  -1.0018974830948480e+01 4.4794411599264703e-03 1.4003808991083244e-03  -9.9971461735975193e+00 1.5642119068378175e-03 1.3752251926401682e-03  -1.0022821855520787e+01 4.8520527430696700e-03 1.4041530931495751e-03  -1.0002103382001687e+01 1.7079747570552123e-03 1.3780107118838696e-03  -1.0026995638409637e+01 5.1849350582581829e-03 1.3710696251636131e-03  -1.0007559230913778e+01 1.8439471942020952e-03 1.3444473956569893e-03  -1.0031449778166118e+01 5.4537854670344693e-03 1.2980209628973974e-03  -1.0013488224388070e+01 1.9659630922158138e-03 1.2715328265498036e-03  -1.0036124728724609e+01 5.6210039878379220e-03 1.1826713749332764e-03  -1.0019880560302587e+01 2.0640173380510915e-03 1.1570577297530197e-03  -1.0040846468687409e+01 5.6255725580629220e-03 1.0238543231730149e-03  -1.0026549049686412e+01 2.1236416102095529e-03 1.0000112215565449e-03  -1.0045597048642568e+01 5.3620666203437377e-03 8.2201200251567051e-04  -1.0033686409513637e+01 2.1066184059704957e-03 8.0104639780896407e-04  -1.0049407081723675e+01 4.6476540826307713e-03 5.7974126438859949e-04  -1.0039968704525743e+01 1.9688144642610846e-03 5.6331029441850230e-04  -1.0053887710071999e+01 3.0070991168393434e-03 3.0296553977576606e-04  -1.0047806697127331e+01 1.4922219701592168e-03 2.9112130749164405e-04  -1.0051298801883439e+01 -8.2653943282692919e-05 -9.1903345671558384e-07  -1.0048611182556316e+01 -7.0343033312558214e-04 8.9257854861414912e-06  -1.0031247886044167e+01 6.5094131431625160e-03 1.2534521368163954e-03  -1.0033330612257208e+01 7.3210308277872659e-03 1.3507242182743283e-03  -1.0035661384207300e+01 8.1105083257523580e-03 1.4217177093599643e-03  -1.0038229599708727e+01 8.8607865978147220e-03 1.4624414918786974e-03  -1.0041014634749375e+01 9.5469039296231135e-03 1.4688966320320664e-03  -1.0043983935621421e+01 1.0132441722810146e-02 1.4372566989417294e-03  -1.0047077528507796e+01 1.0563891038005211e-02 1.3641070768815040e-03  -1.0050232915209508e+01 1.0761238388576223e-02 1.2467398586174800e-03  -1.0053252935311004e+01 1.0602010600156581e-02 1.0835235263065401e-03  -1.0056220075420214e+01 9.8925336182489210e-03 8.7425698714040090e-04  -1.0057564744050961e+01 8.2509434883440563e-03 9.4228464564538594e-04  -1.0057976883527555e+01 8.3159569393385976e-03 6.2082076163779798e-04  -1.0061361349061357e+01 5.3393466501493927e-03 3.2680977418289060e-04  -1.0055589518995825e+01 2.2522470455673890e-04 4.5116915458372443e-07  -1.0051956997978687e+01 9.7654623824684119e-03 1.4311149417281265e-03  -1.0053516220954213e+01 1.0766761979458330e-02 1.5086757074489604e-03  -1.0055209757880137e+01 1.1694535688727232e-02 1.5547739278918397e-03  -1.0057012574741854e+01 1.2510556538352237e-02 1.5650831055514576e-03  -1.0058889625156645e+01 1.3160775632909480e-02 1.5353836581800031e-03  -1.0060782763065474e+01 1.3568546893690072e-02 1.4617902268616754e-03  -1.0062640089798746e+01 1.3624354689804037e-02 1.3410281682851633e-03  -1.0064289114534386e+01 1.3170415320023379e-02 1.1707705382395749e-03  -1.0065885806714880e+01 1.1976972187173090e-02 9.4995060669526182e-04  -1.0066305957393119e+01 9.7137215121112612e-03 6.7925010773809834e-04  -1.0069000434325140e+01 5.9115120590881370e-03 3.6084697282680919e-04  -1.0069296063054725e+01 1.2823630949794981e-02 1.6175536560471045e-03  -1.0070189577380015e+01 1.3854905645001638e-02 1.6701544096982741e-03  -1.0071109400218310e+01 1.4726228787299615e-02 1.6849890339925067e-03  -1.0072025836070697e+01 1.5369739251340242e-02 1.6573393333572655e-03  -1.0072892059632411e+01 1.5692748548458067e-02 1.5827299536711841e-03  -1.0082844727760696e+01 1.5075578834252711e-02 2.7265280466554488e-03  -1.0083411027940540e+01 1.5246827034681458e-02 1.8022762656054595e-03  -1.0082663754998991e+01 1.4023960213856905e-02 2.6367578066589558e-03  -1.0082989833585124e+01 1.5927127577435574e-02 2.7562006682910071e-03  -1.0083555293377236e+01 1.6104692591484136e-02 1.8219485923128703e-03  -1.0083646373898628e+01 1.6682983610854518e-02 1.7962186287682875e-03  -1.0095083357225977e+01 1.6024049009838358e-02 1.9454254567397081e-03  -1.0094559068396659e+01 1.6828380385497371e-02 1.9699734486718994e-03  -1.0093953615447152e+01 1.7314904014304511e-02 1.9458839506581659e-03  -1.0007123206614997e+01 2.8619343136018077e-03 5.0928403684255650e-04  -9.9820997664818485e+00 9.8003302879314273e-04 5.0038068885699893e-04  -9.9794996574253432e+00 8.3456245532131956e-04 4.3531463314775657e-04  -1.0005031677096593e+01 2.4447652738755210e-03 4.4299996001888673e-04  -1.0009563667617204e+01 3.2806299833659743e-03 5.6655583857976601e-04  -9.9851468600015831e+00 1.1275149712579918e-03 5.5651842748242824e-04  -1.0012360201429507e+01 3.6979661206211789e-03 6.1308977419224767e-04  -9.9886575828965931e+00 1.2764655202430488e-03 6.0202658295267981e-04  -1.0015517094376179e+01 4.1092592355860338e-03 6.4707236206522833e-04  -9.9926477417398392e+00 1.4258628163057836e-03 6.3512064928099700e-04  -1.0019033613143774e+01 4.5073025984006167e-03 6.6664477506223508e-04  -9.9971307536862746e+00 1.5740135854582166e-03 6.5397587146815458e-04  -1.0022900241129252e+01 4.8812686291839526e-03 6.6996833639309161e-04  -1.0002113785757768e+01 1.7182642764286291e-03 6.5679333782867001e-04  -1.0027095561961508e+01 5.2149723803251993e-03 6.5531610486217816e-04  -1.0007597857493653e+01 1.8545447067698593e-03 6.4189194308481229e-04  -1.0031572801247625e+01 5.4839652603728452e-03 6.2119497954054399e-04  -1.0013557123128383e+01 1.9766385318148588e-03 6.0783253661690281e-04  -1.0036271558264401e+01 5.6504656898958040e-03 5.6649577893003818e-04  -1.0019980651296631e+01 2.0744783182091481e-03 5.5356927874745411e-04  -1.0041017395703699e+01 5.6532210435821526e-03 4.9069197377593361e-04  -1.0026681477618059e+01 2.1335136737367544e-03 4.7865274230280211e-04  -1.0045789245343915e+01 5.3864891360998271e-03 3.9404090369328981e-04  -1.0033846534835551e+01 2.1153937170402190e-03 3.8344565375742260e-04  -1.0049621719057768e+01 4.6669859167001240e-03 2.7784580549948605e-04  -1.0040164644471401e+01 1.9758679793928737e-03 2.6962945504463334e-04  -1.0054103245558926e+01 3.0183947364708862e-03 1.4528438111449624e-04  -1.0047994073315627e+01 1.4963671277826943e-03 1.3846773310027940e-04  -1.0051569202210732e+01 -8.2606807556365611e-05 -9.4760070200360142e-07  -1.0048893069143492e+01 -7.0627656503710742e-04 8.9458696884581969e-06  -1.0031348484433847e+01 6.5546101274471811e-03 5.9067489469878014e-04  -1.0033439718774353e+01 7.3710476167483229e-03 6.3973148570142812e-04  -1.0035780748276528e+01 8.1648201887950678e-03 6.7593562614188358e-04  -1.0038361032177043e+01 8.9187011281664421e-03 6.9734190835421008e-04  -1.0041159917125553e+01 9.6075225992903347e-03 7.0200712218783585e-04  -1.0044144649108679e+01 1.0194614704971860e-02 6.8807878577252513e-04  -1.0047254981054206e+01 1.0626162488622404e-02 6.5391295404219896e-04  -1.0050427574264358e+01 1.0821777028129502e-02 5.9821636497299621e-04  -1.0053465285509455e+01 1.0658514964929165e-02 5.2023399295363895e-04  -1.0056446754242415e+01 9.9420898990258428e-03 4.1989294295244529e-04  -1.0058221675373634e+01 8.3548132354435110e-03 2.9823140522891199e-04  -1.0061599473613773e+01 5.3624728802892868e-03 1.5680875552593032e-04  -1.0055879552911568e+01 2.2641201955815905e-04 4.6021094404614688e-07  -1.0052146204447299e+01 9.8319548353338164e-03 6.7959404659555993e-04  -1.0053711073946863e+01 1.0838767620241415e-02 7.1909343664059431e-04  -1.0055411711900724e+01 1.1771072106649714e-02 7.4319592836615954e-04  -1.0057223114350592e+01 1.2590360803274553e-02 7.4979547711895528e-04  -1.0059110109246225e+01 1.3242246314554087e-02 7.3684443894485568e-04  -1.0061014378137244e+01 1.3649675971350373e-02 7.0246546891439201e-04  -1.0062883295083477e+01 1.3702645430727146e-02 6.4508458209404189e-04  -1.0064544603126709e+01 1.3242777610717011e-02 5.6360186244044604e-04  -1.0066150495874405e+01 1.2039582621334852e-02 4.5752036445632666e-04  -1.0066584843045677e+01 9.7618404890239298e-03 3.2726233993785048e-04  -1.0069268392852036e+01 5.9391810314520363e-03 1.7376271080641708e-04  -1.0061488716255713e+01 -4.2478188004468549e-05 4.9106557277588419e-07  -1.0061810212771473e+01 -4.2707977472165908e-05 5.1483839921976946e-07  -1.0069563534321253e+01 1.2910456443162013e-02 7.7316510728558257e-04  -1.0070459588008497e+01 1.3946974332068074e-02 8.0053156908904308e-04  -1.0071383228406198e+01 1.4821954058350082e-02 8.0940412334820297e-04  -1.0072304719890832e+01 1.5467127523511830e-02 7.9748747757927847e-04  -1.0073177181671205e+01 1.5789325008114245e-02 7.6261159090489203e-04  -1.0073679460261380e+01 1.5568855654422196e-02 1.4571888975732142e-03  -1.0073971380400954e+01 1.5661579687827394e-02 7.0285672482518421e-04  -1.0074548987575012e+01 1.4911548204919620e-02 6.1671372858555014e-04  -1.0075145440698908e+01 1.3307477411056430e-02 5.0318896935928187e-04  -1.0074659079937083e+01 1.0547408687909406e-02 3.6212257212977296e-04  -1.0076975938104402e+01 6.2482995137976925e-03 1.9366383791256166e-04  -1.0068363523173643e+01 3.4041039577844672e-05 5.3502083153924969e-07  -1.0083746222821528e+01 1.5349326771132644e-02 8.6625879855014936e-04  -1.0083890022339302e+01 1.6210950373351976e-02 8.7756697021838868e-04  -1.0083981834627117e+01 1.6790714469904097e-02 8.6662478530745825e-04  -1.0083654230309561e+01 1.6881088260845094e-02 1.7199453870070875e-03  -1.0083991682143573e+01 1.6987485265506932e-02 8.3093157037894918e-04  -1.0083577247526904e+01 1.6567820432383990e-02 1.5883866378120614e-03  -1.0083917432274777e+01 1.6669476414820961e-02 7.6818537879447203e-04  -1.0083656571002951e+01 1.5667343068950408e-02 6.7643671658959212e-04  -1.0094951924174996e+01 1.6941169464952641e-02 9.5131055770764138e-04  -1.0094343401318111e+01 1.7428909889454110e-02 9.4120775400267215e-04  -1.0093255415644181e+01 1.7381883850424499e-02 1.8673134830320844e-03  -1.0093643521350517e+01 1.7494084121388882e-02 9.0438319971639948e-04  -1.0092876430158286e+01 1.7008806386809759e-02 8.3813920576346649e-04  -1.0091970720940491e+01 1.5816532688861854e-02 7.4008304138983546e-04  -1.0103549010442894e+01 1.7502757442551115e-02 1.0186206550902429e-03  -1.0102271663977969e+01 1.7446206191470640e-02 9.8038945979413128e-04  -1.0100955816305431e+01 1.6828301586782848e-02 9.1027225876030187e-04  -9.9755773704568593e+00 5.5018799202971006e-04 2.8465896235271181e-04  -9.9773304255361630e+00 6.9129943084945522e-04 3.6291443733185437e-04  -9.9772933251890557e+00 6.9289627164441381e-04 -7.6142555128872982e-05  -1.0003276822455302e+01 2.0348324672646201e-03 -7.6265505730443718e-05  -9.9755378997136912e+00 5.5147461574091674e-04 -7.4500478651953910e-05  -1.0005029833616753e+01 2.4497515139173861e-03 -7.7378881149596556e-05  -9.9794656064609502e+00 8.3646201849185069e-04 -7.7314565874523250e-05  -1.0007123965605643e+01 2.8677557301500451e-03 -7.7951146942651853e-05  -9.9820694967849661e+00 9.8222441528993619e-04 -7.7944771807457203e-05  -1.0009567630296463e+01 3.2872465389750653e-03 -7.7903250045543369e-05  -9.9851211559645403e+00 1.1299827656108096e-03 -7.7953719944141362e-05  -1.0012368015512481e+01 3.7053224681491189e-03 -7.7149702107871316e-05  -9.9886372737324312e+00 1.2791884605398859e-03 -7.7255408986913609e-05  -1.0015529440892772e+01 4.1172805084267409e-03 -7.5600431808858657e-05  -9.9926336875547399e+00 1.4288122243644777e-03 -7.5759090082612679e-05  -1.0019051180574682e+01 4.5158894748734933e-03 -7.3163372233740566e-05  -9.9971238144117649e+00 1.5771515340321474e-03 -7.3371826019441716e-05  -1.0022923698325929e+01 4.8902915339695402e-03 -6.97476