<?xml version="1.0"?>
<VTKFile type="UnstructuredGrid"  version="0.1"  >
<UnstructuredGrid>
<Piece  NumberOfPoints="7705" NumberOfCells="39130">
<Points>
<DataArray  type="Float64"  NumberOfComponents="3"  format="ascii">0 0 0.175  0.025 0 0.175  0.025 0 0.2  0.025 0.025 0.2  0 0 0.2  0 0.025 0.2  0 0.025 0.175  0.05 0 0.175  0.05 0 0.2  0.05 0.025 0.2  0.075 0 0.2  0.075 0.025 0.2  0.025 0.05 0.2  0 0.05 0.2  0 0.05 0.175  0.025 0.075 0.2  0 0.075 0.2  0.025 0.025 0.225  0.025 0 0.225  0 0 0.225  0 0.025 0.225  0.05 0.025 0.225  0.05 0 0.225  0.075 0.025 0.225  0.075 0 0.225  0.1 0 0.225  0.1 0.025 0.225  0.025 0.05 0.225  0 0.05 0.225  0.05 0.05 0.2  0.05 0.05 0.225  0.075 0.05 0.2  0.075 0.05 0.225  0.1 0.05 0.225  0.025 0.075 0.225  0 0.075 0.225  0.05 0.075 0.225  0.075 0.075 0.225  0.1 0.075 0.225  0.025 0.1 0.2  0.025 0.1 0.225  0 0.1 0.2  0 0.1 0.225  0.05 0.1 0.225  0.025 0.125 0.225  0 0.125 0.225  0.05 0.125 0.225  0.025 0.025 0.25  0.025 0 0.25  0 0 0.25  0 0.025 0.25  0.05 0.025 0.25  0.05 0 0.25  0.075 0.025 0.25  0.075 0 0.25  0.1 0.025 0.25  0.1 0 0.25  0.125 0 0.225  0.125 0 0.25  0.125 0.025 0.25  0.15 0 0.225  0.15 0 0.25  0.15 0.025 0.25  0.175 0.025 0.25  0.025 0.05 0.25  0 0.05 0.25  0.05 0.05 0.25  0.075 0.05 0.25  0.1 0.05 0.25  0.125 0.05 0.25  0.025 0.075 0.25  0 0.075 0.25  0.05 0.075 0.25  0.075 0.075 0.25  0.1 0.075 0.25  0.125 0.075 0.25  0.025 0.1 0.25  0 0.1 0.25  0.05 0.1 0.25  0.075 0.1 0.25  0.1 0.1 0.25  0.125 0.1 0.25  0.025 0.125 0.25  0 0.125 0.25  0.05 0.125 0.25  0.075 0.125 0.25  0.025 0.15 0.25  0 0.15 0.25  0.05 0.15 0.25  0.075 0.15 0.25  0.025 0.025 0.275  0.025 0 0.275  0 0 0.275  0 0.025 0.275  0.05 0.025 0.275  0.05 0 0.275  0.075 0.025 0.275  0.075 0 0.275  0.1 0.025 0.275  0.1 0 0.275  0.125 0.025 0.275  0.125 0 0.275  0.15 0.025 0.275  0.15 0 0.275  0.175 0.025 0.275  0.025 0.05 0.275  0 0.05 0.275  0.05 0.05 0.275  0.075 0.05 0.275  0.1 0.05 0.275  0.125 0.05 0.275  0.15 0.05 0.25  0.15 0.05 0.275  0.175 0.05 0.25  0.175 0.05 0.275  0.2 0.05 0.275  0.025 0.075 0.275  0 0.075 0.275  0.05 0.075 0.275  0.075 0.075 0.275  0.1 0.075 0.275  0.125 0.075 0.275  0.15 0.075 0.25  0.15 0.075 0.275  0.175 0.075 0.275  0.2 0.075 0.275  0.025 0.1 0.275  0 0.1 0.275  0.05 0.1 0.275  0.075 0.1 0.275  0.1 0.1 0.275  0.125 0.1 0.275  0.15 0.1 0.25  0.15 0.1 0.275  0.175 0.1 0.275  0.025 0.125 0.275  0 0.125 0.275  0.05 0.125 0.275  0.075 0.125 0.275  0.1 0.125 0.25  0.1 0.125 0.275  0.125 0.125 0.25  0.125 0.125 0.275  0.15 0.125 0.275  0.175 0.125 0.275  0.025 0.15 0.275  0 0.15 0.275  0.05 0.15 0.275  0.075 0.15 0.275  0.1 0.15 0.25  0.1 0.15 0.275  0.125 0.15 0.275  0.15 0.15 0.275  0.025 0.175 0.25  0.025 0.175 0.275  0 0.175 0.25  0 0.175 0.275  0.05 0.175 0.275  0.075 0.175 0.275  0.1 0.175 0.275  0.125 0.175 0.275  0.025 0.2 0.275  0 0.2 0.275  0 0.2 0.25  0.05 0.2 0.275  0.025 0.225 0.275  0 0.225 0.275  0.025 0.025 0.3  0.025 0 0.3  0 0 0.3  0 0.025 0.3  0.05 0.025 0.3  0.05 0 0.3  0.075 0.025 0.3  0.075 0 0.3  0.1 0.025 0.3  0.1 0 0.3  0.125 0.025 0.3  0.125 0 0.3  0.15 0.025 0.3  0.15 0 0.3  0.175 0.025 0.3  0.025 0.05 0.3  0 0.05 0.3  0.05 0.05 0.3  0.075 0.05 0.3  0.1 0.05 0.3  0.125 0.05 0.3  0.15 0.05 0.3  0.175 0.05 0.3  0.2 0.05 0.3  0.025 0.075 0.3  0 0.075 0.3  0.05 0.075 0.3  0.075 0.075 0.3  0.1 0.075 0.3  0.125 0.075 0.3  0.15 0.075 0.3  0.175 0.075 0.3  0.2 0.075 0.3  0.025 0.1 0.3  0 0.1 0.3  0.05 0.1 0.3  0.075 0.1 0.3  0.1 0.1 0.3  0.125 0.1 0.3  0.15 0.1 0.3  0.175 0.1 0.3  0.2 0.1 0.3  0.225 0.1 0.3  0.025 0.125 0.3  0 0.125 0.3  0.05 0.125 0.3  0.075 0.125 0.3  0.1 0.125 0.3  0.125 0.125 0.3  0.15 0.125 0.3  0.175 0.125 0.3  0.2 0.125 0.3  0.025 0.15 0.3  0 0.15 0.3  0.05 0.15 0.3  0.075 0.15 0.3  0.1 0.15 0.3  0.125 0.15 0.3  0.15 0.15 0.3  0.175 0.15 0.275  0.175 0.15 0.3  0.2 0.15 0.3  0.025 0.175 0.3  0 0.175 0.3  0.05 0.175 0.3  0.075 0.175 0.3  0.1 0.175 0.3  0.125 0.175 0.3  0.15 0.175 0.3  0.175 0.175 0.3  0.2 0.175 0.3  0.025 0.2 0.3  0 0.2 0.3  0.05 0.2 0.3  0.075 0.2 0.275  0.075 0.2 0.3  0.1 0.2 0.3  0.125 0.2 0.3  0.15 0.2 0.3  0.025 0.225 0.3  0 0.225 0.3  0.05 0.225 0.275  0.05 0.225 0.3  0.075 0.225 0.275  0.075 0.225 0.3  0.1 0.225 0.3  0.025 0.25 0.3  0 0.25 0.3  0.05 0.25 0.3  0.075 0.25 0.3  0.1 0.25 0.3  0.025 0.025 0.325  0.025 0 0.325  0 0 0.325  0 0.025 0.325  0.05 0.025 0.325  0.05 0 0.325  0.075 0.025 0.325  0.075 0 0.325  0.1 0.025 0.325  0.1 0 0.325  0.125 0.025 0.325  0.125 0 0.325  0.15 0.025 0.325  0.15 0 0.325  0.175 0.025 0.325  0.025 0.05 0.325  0 0.05 0.325  0.05 0.05 0.325  0.075 0.05 0.325  0.1 0.05 0.325  0.125 0.05 0.325  0.15 0.05 0.325  0.175 0.05 0.325  0.2 0.05 0.325  0.025 0.075 0.325  0 0.075 0.325  0.05 0.075 0.325  0.075 0.075 0.325  0.1 0.075 0.325  0.125 0.075 0.325  0.15 0.075 0.325  0.175 0.075 0.325  0.2 0.075 0.325  0.025 0.1 0.325  0 0.1 0.325  0.05 0.1 0.325  0.075 0.1 0.325  0.1 0.1 0.325  0.125 0.1 0.325  0.15 0.1 0.325  0.175 0.1 0.325  0.2 0.1 0.325  0.225 0.1 0.325  0.025 0.125 0.325  0 0.125 0.325  0.05 0.125 0.325  0.075 0.125 0.325  0.1 0.125 0.325  0.125 0.125 0.325  0.15 0.125 0.325  0.175 0.125 0.325  0.2 0.125 0.325  0.225 0.125 0.3  0.225 0.125 0.325  0.25 0.125 0.3  0.25 0.125 0.325  0.025 0.15 0.325  0 0.15 0.325  0.05 0.15 0.325  0.075 0.15 0.325  0.1 0.15 0.325  0.125 0.15 0.325  0.15 0.15 0.325  0.175 0.15 0.325  0.2 0.15 0.325  0.225 0.15 0.3  0.225 0.15 0.325  0.25 0.15 0.3  0.25 0.15 0.325  0.275 0.15 0.325  0.025 0.175 0.325  0 0.175 0.325  0.05 0.175 0.325  0.075 0.175 0.325  0.1 0.175 0.325  0.125 0.175 0.325  0.15 0.175 0.325  0.175 0.175 0.325  0.2 0.175 0.325  0.225 0.175 0.3  0.225 0.175 0.325  0.25 0.175 0.3  0.25 0.175 0.325  0.275 0.175 0.325  0.025 0.2 0.325  0 0.2 0.325  0.05 0.2 0.325  0.075 0.2 0.325  0.1 0.2 0.325  0.125 0.2 0.325  0.15 0.2 0.325  0.175 0.2 0.3  0.175 0.2 0.325  0.2 0.2 0.3  0.2 0.2 0.325  0.225 0.2 0.3  0.225 0.2 0.325  0.25 0.2 0.325  0.275 0.2 0.325  0.025 0.225 0.325  0 0.225 0.325  0.05 0.225 0.325  0.075 0.225 0.325  0.1 0.225 0.325  0.125 0.225 0.3  0.125 0.225 0.325  0.15 0.225 0.325  0.175 0.225 0.325  0.2 0.225 0.3  0.2 0.225 0.325  0.225 0.225 0.3  0.225 0.225 0.325  0.25 0.225 0.325  0.025 0.25 0.325  0 0.25 0.325  0.05 0.25 0.325  0.075 0.25 0.325  0.1 0.25 0.325  0.125 0.25 0.325  0.15 0.25 0.325  0.225 0.25 0.325  0.2 0.25 0.325  0.25 0.25 0.325  0.075 0.275 0.325  0.1 0.275 0.325  0.125 0.275 0.325  0.025 0.025 0.35  0.025 0 0.35  0 0 0.35  0 0.025 0.35  0.05 0.025 0.35  0.05 0 0.35  0.075 0.025 0.35  0.075 0 0.35  0.1 0.025 0.35  0.1 0 0.35  0.125 0.025 0.35  0.125 0 0.35  0.15 0.025 0.35  0.15 0 0.35  0.175 0.025 0.35  0.025 0.05 0.35  0 0.05 0.35  0.05 0.05 0.35  0.075 0.05 0.35  0.1 0.05 0.35  0.125 0.05 0.35  0.15 0.05 0.35  0.175 0.05 0.35  0.2 0.05 0.35  0.025 0.075 0.35  0 0.075 0.35  0.05 0.075 0.35  0.075 0.075 0.35  0.1 0.075 0.35  0.125 0.075 0.35  0.15 0.075 0.35  0.175 0.075 0.35  0.2 0.075 0.35  0.225 0.075 0.35  0.025 0.1 0.35  0 0.1 0.35  0.05 0.1 0.35  0.075 0.1 0.35  0.1 0.1 0.35  0.125 0.1 0.35  0.15 0.1 0.35  0.175 0.1 0.35  0.2 0.1 0.35  0.225 0.1 0.35  0.025 0.125 0.35  0 0.125 0.35  0.05 0.125 0.35  0.075 0.125 0.35  0.1 0.125 0.35  0.125 0.125 0.35  0.15 0.125 0.35  0.175 0.125 0.35  0.2 0.125 0.35  0.225 0.125 0.35  0.25 0.125 0.35  0.025 0.15 0.35  0 0.15 0.35  0.05 0.15 0.35  0.075 0.15 0.35  0.1 0.15 0.35  0.125 0.15 0.35  0.15 0.15 0.35  0.175 0.15 0.35  0.2 0.15 0.35  0.225 0.15 0.35  0.25 0.15 0.35  0.275 0.15 0.35  0.025 0.175 0.35  0 0.175 0.35  0.05 0.175 0.35  0.075 0.175 0.35  0.1 0.175 0.35  0.125 0.175 0.35  0.15 0.175 0.35  0.175 0.175 0.35  0.2 0.175 0.35  0.225 0.175 0.35  0.25 0.175 0.35  0.275 0.175 0.35  0.3 0.175 0.35  0.025 0.2 0.35  0 0.2 0.35  0.05 0.2 0.35  0.075 0.2 0.35  0.1 0.2 0.35  0.125 0.2 0.35  0.15 0.2 0.35  0.175 0.2 0.35  0.2 0.2 0.35  0.225 0.2 0.35  0.25 0.2 0.35  0.275 0.2 0.35  0.3 0.2 0.35  0.025 0.225 0.35  0 0.225 0.35  0.05 0.225 0.35  0.075 0.225 0.35  0.1 0.225 0.35  0.125 0.225 0.35  0.15 0.225 0.35  0.175 0.225 0.35  0.2 0.225 0.35  0.225 0.225 0.35  0.25 0.225 0.35  0.275 0.225 0.35  0.3 0.225 0.35  0.025 0.25 0.35  0 0.25 0.35  0.05 0.25 0.35  0.075 0.25 0.35  0.1 0.25 0.35  0.125 0.25 0.35  0.15 0.25 0.35  0.175 0.25 0.35  0.2 0.25 0.35  0.225 0.25 0.35  0.25 0.25 0.35  0.275 0.25 0.35  0.075 0.275 0.35  0.1 0.275 0.35  0.125 0.275 0.35  0.15 0.275 0.35  0.225 0.275 0.35  0.2 0.275 0.35  0.25 0.275 0.35  0.275 0.275 0.35  0.025 0.025 0.375  0.025 0 0.375  0 0 0.375  0 0.025 0.375  0.05 0.025 0.375  0.05 0 0.375  0.075 0.025 0.375  0.075 0 0.375  0.1 0.025 0.375  0.1 0 0.375  0.125 0.025 0.375  0.125 0 0.375  0.15 0.025 0.375  0.15 0 0.375  0.175 0.025 0.375  0.025 0.05 0.375  0 0.05 0.375  0.05 0.05 0.375  0.075 0.05 0.375  0.1 0.05 0.375  0.125 0.05 0.375  0.15 0.05 0.375  0.175 0.05 0.375  0.2 0.05 0.375  0.025 0.075 0.375  0 0.075 0.375  0.05 0.075 0.375  0.075 0.075 0.375  0.1 0.075 0.375  0.125 0.075 0.375  0.15 0.075 0.375  0.175 0.075 0.375  0.2 0.075 0.375  0.225 0.075 0.375  0.025 0.1 0.375  0 0.1 0.375  0.05 0.1 0.375  0.075 0.1 0.375  0.1 0.1 0.375  0.125 0.1 0.375  0.15 0.1 0.375  0.175 0.1 0.375  0.2 0.1 0.375  0.225 0.1 0.375  0.025 0.125 0.375  0 0.125 0.375  0.05 0.125 0.375  0.075 0.125 0.375  0.1 0.125 0.375  0.125 0.125 0.375  0.15 0.125 0.375  0.175 0.125 0.375  0.2 0.125 0.375  0.225 0.125 0.375  0.25 0.125 0.375  0.025 0.15 0.375  0 0.15 0.375  0.05 0.15 0.375  0.075 0.15 0.375  0.1 0.15 0.375  0.125 0.15 0.375  0.15 0.15 0.375  0.175 0.15 0.375  0.2 0.15 0.375  0.225 0.15 0.375  0.25 0.15 0.375  0.275 0.15 0.375  0.025 0.175 0.375  0 0.175 0.375  0.05 0.175 0.375  0.075 0.175 0.375  0.1 0.175 0.375  0.125 0.175 0.375  0.15 0.175 0.375  0.175 0.175 0.375  0.2 0.175 0.375  0.225 0.175 0.375  0.25 0.175 0.375  0.275 0.175 0.375  0.3 0.175 0.375  0.025 0.2 0.375  0 0.2 0.375  0.05 0.2 0.375  0.075 0.2 0.375  0.1 0.2 0.375  0.125 0.2 0.375  0.15 0.2 0.375  0.175 0.2 0.375  0.2 0.2 0.375  0.225 0.2 0.375  0.25 0.2 0.375  0.275 0.2 0.
[...]
<PointData  Scalars="f_153"> 
<DataArray  type="Float64"  Name="f_153"  format="ascii">1.0077164352039544e+02  1.0069220323261557e+02  1.0072386573874060e+02  1.0078826254755647e+02  1.0080619624714745e+02  1.0085206634335005e+02  1.0081531808921619e+02  1.0060108934333347e+02  1.0062792040302033e+02  1.0071203354080529e+02  1.0052122489354878e+02  1.0062376492465270e+02  1.0087152816748539e+02  1.0094347687802924e+02  1.0090140760848155e+02  1.0096484643630679e+02  1.0104251805346338e+02  1.0082108285830068e+02  1.0075415236137911e+02  1.0083881818886158e+02  1.0088652209825663e+02  1.0074111871593466e+02  1.0065394685193432e+02  1.0064859106827487e+02  1.0054218806392134e+02  1.0043026011635612e+02  1.0055454607418767e+02  1.0090856417998647e+02  1.0098256190064086e+02  1.0079306868899670e+02  1.0082625044465100e+02  1.0071376185374957e+02  1.0074302813264899e+02  1.0066026169954139e+02  1.0100729076762674e+02  1.0108712985023503e+02  1.0091383159010680e+02  1.0083217871108133e+02  1.0075428322975209e+02  1.0106163587850126e+02  1.0111020948512292e+02  1.0114370869952921e+02  1.0119440259504412e+02  1.0100235542197392e+02  1.0121176365658779e+02  1.0129950115476132e+02  1.0108966491855323e+02  1.0085176539111336e+02  1.0078264188525212e+02  1.0086917879227074e+02  1.0091840855878885e+02  1.0076845590911324e+02  1.0067869561799991e+02  1.0067209024309727e+02  1.0056241483212216e+02  1.0057403200705434e+02  1.0044576966286785e+02  1.0032225440709907e+02  1.0033318260051954e+02  1.0047742024527149e+02  1.0022012627217666e+02  1.0022680994663762e+02  1.0038482357936611e+02  1.0029759998418761e+02  1.0094288693206390e+02  1.0101846563131869e+02  1.0085712580434748e+02  1.0077035610981854e+02  1.0068397059706459e+02  1.0059921200323944e+02  1.0104632692749317e+02  1.0112786308644787e+02  1.0094898979262013e+02  1.0086377637807860e+02  1.0078240829358869e+02  1.0070506369842380e+02  1.0115464332512937e+02  1.0124049867793346e+02  1.0104222079802589e+02  1.0095390868487463e+02  1.0087294567521654e+02  1.0079924108829717e+02  1.0126188744709067e+02  1.0135117487036989e+02  1.0113444005851470e+02  1.0104079682474925e+02  1.0136528462347857e+02  1.0145715671039726e+02  1.0122379142978936e+02  1.0112380778284721e+02  1.0088004301125106e+02  1.0080901753816774e+02  1.0089703066040009e+02  1.0094752049553340e+02  1.0079375461502427e+02  1.0070180382562422e+02  1.0069397179929136e+02  1.0058152171689159e+02  1.0059226629372739e+02  1.0046063754243383e+02  1.0049206011726466e+02  1.0034386693290438e+02  1.0039609457799286e+02  1.0023355728057352e+02  1.0030582451485303e+02  1.0097429940303790e+02  1.0105104923531893e+02  1.0088546955510729e+02  1.0079553167165361e+02  1.0070582430297874e+02  1.0061786891988719e+02  1.0051788207646450e+02  1.0053359546701802e+02  1.0044094530132131e+02  1.0045404420029936e+02  1.0037992221744642e+02  1.0108182714522421e+02  1.0116463988850303e+02  1.0098106436932761e+02  1.0089266415562808e+02  1.0080808889921111e+02  1.0072777716072902e+02  1.0063187842123570e+02  1.0065194147473657e+02  1.0058085894466532e+02  1.0051483200677752e+02  1.0119486421363374e+02  1.0128196562185978e+02  1.0107842952843774e+02  1.0098678002158326e+02  1.0090257646677557e+02  1.0082600375274470e+02  1.0073119475500846e+02  1.0075548992700570e+02  1.0069052180428992e+02  1.0130712309439691e+02  1.0139755396762806e+02  1.0117499323663124e+02  1.0107779313509361e+02  1.0095732804352859e+02  1.0099094394188322e+02  1.0088440078194201e+02  1.0091515169233010e+02  1.0084735017605060e+02  1.0078633525427422e+02  1.0141562209111117e+02  1.0150848006730823e+02  1.0126874785634736e+02  1.0116494534458579e+02  1.0103619266425754e+02  1.0107374519175998e+02  1.0099671242959074e+02  1.0092962675185410e+02  1.0146308456903371e+02  1.0151845119789169e+02  1.0155688544611021e+02  1.0161304691543944e+02  1.0135809610993120e+02  1.0124746224374240e+02  1.0115108285656650e+02  1.0107152321008606e+02  1.0161449249263831e+02  1.0171026075824238e+02  1.0164946799257467e+02  1.0144199957228123e+02  1.0170310256982485e+02  1.0179956832986274e+02  1.0090571525847191e+02  1.0083304104007681e+02  1.0092218924834236e+02  1.0097370673567507e+02  1.0081679203597648e+02  1.0072299357398354e+02  1.0071400414162756e+02  1.0059920689741408e+02  1.0060903626043448e+02  1.0047456407561565e+02  1.0050556863251649e+02  1.0035403513837824e+02  1.0040650140628065e+02  1.0024014278631518e+02  1.0031338592629028e+02  1.0100265764002293e+02  1.0108021649302597e+02  1.0091111204960767e+02  1.0081838397325919e+02  1.0072568278748693e+02  1.0063479836158906e+02  1.0054777898964774e+02  1.0046574508655144e+02  1.0038944247867030e+02  1.0111370664293314e+02  1.0119741772871798e+02  1.0100993182020491e+02  1.0091872120085641e+02  1.0083124266631748e+02  1.0074818918871925e+02  1.0066984770127128e+02  1.0059655600443254e+02  1.0052863749914954e+02  1.0123083833877389e+02  1.0131880580049307e+02  1.0111089388696426e+02  1.0101630049819929e+02  1.0092915817110577e+02  1.0084991759903015e+02  1.0077704231959245e+02  1.0071005977171953e+02  1.0064869406923647e+02  1.0059277488636862e+02  1.0134747388580816e+02  1.0143867289631348e+02  1.0121126046094854e+02  1.0111092375918470e+02  1.0102100760852896e+02  1.0094253818943508e+02  1.0087244288424695e+02  1.0080954139323781e+02  1.0075292695574373e+02  1.0146045291315674e+02  1.0155392948337492e+02  1.0130889169235044e+02  1.0120172209090643e+02  1.0110726967516815e+02  1.0102749302008675e+02  1.0095812261130510e+02  1.0087075366809199e+02  1.0089743659355145e+02  1.0084396031976813e+02  1.0156772410284644e+02  1.0166275615730041e+02  1.0140207782736040e+02  1.0128783150018330e+02  1.0118798317529698e+02  1.0110557424343895e+02  1.0103545463246874e+02  1.0097552273496700e+02  1.0092383395583849e+02  1.0166806541957413e+02  1.0176406778680605e+02  1.0148969606173607e+02  1.0132472598437244e+02  1.0136856350216313e+02  1.0126300917201431e+02  1.0117720314677953e+02  1.0110534589247676e+02  1.0176075709899493e+02  1.0185724423705486e+02  1.0151977577537764e+02  1.0157099972966306e+02  1.0139627526266338e+02  1.0144340178478775e+02  1.0133218193290260e+02  1.0184540178718819e+02  1.0194195932875306e+02  1.0164552209759231e+02  1.0151199874448737e+02  1.0139536756583728e+02  1.0092863274278473e+02  1.0085453370065528e+02  1.0094451781933911e+02  1.0099685709764594e+02  1.0083739864774203e+02  1.0074205274468325e+02  1.0073200532197670e+02  1.0061523441396893e+02  1.0062416770676616e+02  1.0048730817079854e+02  1.0051779803089630e+02  1.0036346078525590e+02  1.0041593801788562e+02  1.0024637136237178e+02  1.0032023008754881e+02  1.0102785795894738e+02  1.0110590251421081e+02  1.0093392710698637e+02  1.0083877976553559e+02  1.0074342927964123e+02  1.0064991970368906e+02  1.0056040365062124e+02  1.0047608012180176e+02  1.0039773759614121e+02  1.0114191169501224e+02  1.0122617797256918e+02  1.0103550596562417e+02  1.0094185646700484e+02  1.0085180018814057e+02  1.0076627451303338e+02  1.0068563264068737e+02  1.0061027619035173e+02  1.0054055657518769e+02  1.0126255766809395e+02  1.0135104166010453e+02  1.0113956118910603e+02  1.0104241320826627e+02  1.0095265857565444e+02  1.0087100127432674e+02  1.0079593963110325e+02  1.0072704895130987e+02  1.0066406543821896e+02  1.0060681281408516e+02  1.0138296822302283e+02  1.0147458629933254e+02  1.0124321411395613e+02  1.0114015691875568e+02  1.0104751404176251e+02  1.0096661190071318e+02  1.0089437841355517e+02  1.0082966765826701e+02  1.0077156948271995e+02  1.0070201816760338e+02  1.0071948421864201e+02  1.0065640769515136e+02  1.0067297356297254e+02  1.0149983084828384e+02  1.0159358167787518e+02  1.0134421135810099e+02  1.0123412231922160e+02  1.0113677901406129e+02  1.0105450428710948e+02  1.0098299350450922e+02  1.0092055050806883e+02  1.0086568263138140e+02  1.0079671025540956e+02  1.0081737635324491e+02  1.0075497228183147e+02  1.0077487594924416e+02  1.0073761588739457e+02  1.0161097135182698e+02  1.0170610213511068e+02  1.0144074475690030e+02  1.0132336653886998e+02  1.0122043535184338e+02  1.0113542957761733e+02  1.0106313074462575e+02  1.0100145788707910e+02  1.0094843502314458e+02  1.0087904653770724e+02  1.0090267987591440e+02  1.0084015200477282e+02  1.0086313222635135e+02  1.0082899202093662e+02  1.0171507538700016e+02  1.0181098163911130e+02  1.0153161647874185e+02  1.0140713782227289e+02  1.0129829537681601e+02  1.0120977336085755e+02  1.0113567297867382e+02  1.0104508735021881e+02  1.0107366231117513e+02  1.0099411542432777e+02  1.0102138619625066e+02  1.0095078909361112e+02  1.0097715391915787e+02  1.0093963292055277e+02  1.0090780138942027e+02  1.0181135388158775e+02  1.0190753951034849e+02  1.0161602158752324e+02  1.0148486958692233e+02  1.0137015403543339e+02  1.0124261264177029e+02  1.0127773930445498e+02  1.0120121117619961e+02  1.0113808976007097e+02  1.0105600729600155e+02  1.0108573279830898e+02  1.0101334302615368e+02  1.0104220256646768e+02  1.0100593443867498e+02  1.0189935834345899e+02  1.0199540496519943e+02  1.0169344953556782e+02  1.0155617588956075e+02  1.0143584679674636e+02  1.0133944431211100e+02  1.0126015515232103e+02  1.0109894471889804e+02  1.0114239733364934e+02  1.0106331105249079e+02  1.0162081113239347e+02  1.0149526252721417e+02  1.0139497051924994e+02  1.0094868520193938e+02  1.0087336232457034e+02  1.0096391604296700e+02  1.0101689240658399e+02  1.0085544664758828e+02  1.0075882031608569e+02  1.0074783420471658e+02  1.0062942117485102e+02  1.0063752082564116e+02  1.0049867809226434e+02  1.0052862439680464e+02  1.0037195876460470e+02  1.0042430927787012e+02  1.0025207834435977e+02  1.0032630023977204e+02  1.0104982707972486e+02  1.0112806523950738e+02  1.0095382221799447e+02  1.0085661709750583e+02  1.0075896968529607e+02  1.0066316208050745e+02  1.0057143501481897e+02  1.0048506055005787e+02  1.0040486968256029e+02  1.0116641077124162e+02  1.0125091771998945e+02  1.0105772839123067e+02  1.0096200337722456e+02  1.0086970631604888e+02  1.0078200698539237e+02  1.0069931343901804e+02  1.0062208945002843e+02  1.0055071689446606e+02  1.0048540355642405e+02  1.0129003053360266e+02  1.0137870658286953e+02  1.0116440314221747e+02  1.0106508163582130e+02  1.0097305439609346e+02  1.0088926516773100e+02  1.0081224158981161e+02  1.0074160857097354e+02  1.0067711983601802e+02  1.0061860125050748e+02  1.0141364818109818e+02  1.0150535773990840e+02  1.0127085018086086e+02  1.0116547979626074e+02  1.0107046461010314e+02  1.0098741176007427e+02  1.0091325036651223e+02  1.0084687333331151e+02  1.0078737563328600e+02  1.0073414986733984e+02  1.0068673770007869e+02  1.0153382371742826e+02  1.0162752292052224e+02  1.0137472041828150e+02  1.0126215016821897e+02  1.0116229223606599e+02  1.0107780620838773e+02  1.0100435882999963e+02  1.0094028612526333e+02  1.0088408883977702e+02  1.0083473630509521e+02  1.0079144413272263e+02  1.0075361206782246e+02  1.0164827806055774e+02  1.0174318618160048e+02  1.0147412129608220e+02  1.0135408193628619e+02  1.0124846963328179e+02  1.0116116348065530e+02  1.0108688826924434e+02  1.0102359164546921e+02  1.0096928027968640e+02  1.0092254630313028e+02  1.0088229260005555e+02  1.0084767713414135e+02  1.0081804248399877e+02  1.0175561688465216e+02  1.0185111167160358e+02  1.0156778988020761e+02  1.0144046810975202e+02  1.0132876612261538e+02  1.0123783720691837e+02  1.0116169944898328e+02  1.0109804810782799e+02  1.0104450124121927e+02  1.0099933520002818e+02  1.0096117294423146e+02  1.0092894385076507e+02  1.0090180586547224e+02  1.0185498995845235e+02  1.0195056553770273e+02  1.0165486982568677e+02  1.0152069750832743e+02  1.0140294143048600e+02  1.0130800443143370e+02  1.0122936456461812e+02  1.0116456937912982e+02  1.0111094173085775e+02  1.0106650469581079e+02  1.0102964237922735e+02  1.0099907919022047e+02  1.0097380010915356e+02  1.0194590270025786e+02  1.0204113702112005e+02  1.0173481121424818e+02  1.0159434956154007e+02  1.0147080308550943e+02  1.0137176055971653e+02  1.0129027820317970e+02  1.0122383002799745e+02  1.0116951940506357e+02  1.0112517276952323e+02  1.0108897736532786e+02  1.0105948080999991e+02  1.0166115229246468e+02  1.0153221836767617e+02  1.0142917101904642e+02  1.0134472790000763e+02  1.0117623301910849e+02  1.0122094873706402e+02  1.0114022152348743e+02  1.0111131383735088e+02  1.0096579226217797e+02  1.0088942853095216e+02  1.0098031123368186e+02  1.0103375676207912e+02  1.0087084077664453e+02  1.0077317506354990e+02  1.0076138276692178e+02  1.0064162646775523e+02  1.0064898547248443e+02  1.0050852326503069e+02  1.0053794664717880e+02  1.0037938028661354e+02  1.0043153368593566e+02  1.0025712787524023e+02  1.0033154291010749e+02  1.0106851442136956e+02  1.0114667889089141e+02  1.0097073068721501e+02  1.0087181939396757e+02  1.0077223024170054e+02  1.0067446637456985e+02  1.0058083945394947e+02  1.0049268651151520e+02  1.0041087801520582e+02  1.0118718777062215e+02  1.0127164375428330e+02  1.0107656097158946e+02  1.0097911468289576e+02  1.0088491913263367e+02  1.0079536354802532e+02  1.0071089767488471e+02  1.0063204260337852e+02  1.0055920980802709e+02  1.0049262132394770e+02  1.0131327481739832e+02  1.0140183846593914e+02  1.0118540785819117e+02  1.0108428439816987e+02  1.0099033063244701e+02  1.0090471641362106e+02  1.0082599040416828e+02  1.0075382516197719e+02  1.0068799356122364e+02  1.0062832822167647e+02  1.0143956163551167e+02  1.0153105208036506e+02  1.0129417900084114e+02  1.0118689240852672e+02  1.0108986603020142e+02  1.0100496924444906e+02  1.0092912914560686e+02  1.0086127780274731e+02  1.0080051950510122e+02  1.0074624580715520e+02  1.0069798619493091e+02  1.0156250366017183e+02  1.0165583957130917e+02  1.0140044652227260e+02  1.0128582207131713e+02  1.0118383254753307e+02  1.0109744897548782e+02  1.0102231110801780e+02  1.0095678918593275e+02  1.0089938398052246e+02  1.0084905632377229e+02  1.0080500276071537e+02  1.0076659790273303e+02  1.0167973424561706e+02  1.0177411030041905e+02  1.0150224721115912e+02  1.0138000552020412e+02  1.0127212073752260e+02  1.0118283965272472e+02  1.0110683629848769e+02  1.0104209016805598e+02  1.0098659937029460e+02  1.0093894087151749e+02  1.0089799191710601e+02  1.0086287948498494e+02  1.0083291239138789e+02  1.0178979155601181e+02  1.0188456992588850e+02  1.0159826320049268e+02  1.0146858890490378e+02  1.0135446314128494e+02  1.0126146727646010e+02  1.0118354608966588e+02  1.0111842608005476e+02  1.0106370919074951e+02  1.0101765082750836e+02  1.0097884224664308e+02  1.0094617633013154e+02  1.0091877225625785e+02  1.0089592910064512e+02  1.0189177299011526e+02  1.0198643944103965e+02  1.0168759417498372e+02  1.0155092271342279e+02  1.0143058900670171e+02  1.0133348558357497e+02  1.0125299592295463e+02  1.0118669961549385e+02  1.0113189688520018e+02  1.0108658493946244e+02  1.0104911074216839e+02  1.0101815716723551e+02  1.0099266574128109e+02  1.0097178954562040e+02  1.0198514384543128e+02  1.0207927360366809e+02  1.0176965605685328e+02  1.0162655619886269e+02  1.0150028134495439e+02  1.0139897086760733e+02  1.0131556653691744e+02  1.0124757619048647e+02  1.0119207498458279e+02  1.0114685937408190e+02  1.0111007468978153e+02  1.0108022250502755e+02  1.0103551282924697e+02  1.0105608481275286e+02  1.0103667901966914e+02  1.0184408831669919e+02  1.0169519402023121e+02  1.0156338818646108e+02  1.0145797343620197e+02  1.0137153450787760e+02  1.0130155819736392e+02  1.0124495429816869e+02  1.0119936702321586e+02  1.0116277946232792e+02  1.0113354120193155e+02  1.0097989625929505e+02  1.0090266059229464e+02  1.0099365158312828e+02  1.0104741152636544e+02  1.0088351107644706e+02  1.0078502684878896e+02  1.0077256965769632e+02  1.0065174360643846e+02  1.0065847659365166e+02  1.0051672732346911e+02  1.0054568448779391e+02  1.0038560807716409e+02  1.0043754405852793e+02  1.0026141054953992e+02  1.0014576745417037e+02  1.0033591110719526e+02  1.0108388605649483e+02  1.0116172887701177e+02  1.0098460538002161e+02  1.0088433028383135e+02  1.0078315460900841e+02  1.0068378524909991e+02  1.0058858727722655e+02  1.0049895297470614e+02  1.0041578719436930e+02  1.0120423677607867e+02  1.0128836795214059e+02  1.0109198001637679e+02  1.0099315791409629e+02  1.0089740799374196e+02  1.0080632564872288e+02  1.0072038829219552e+02  1.0064016742410244e+02  1.0056610091394207e+02  1.0049842525421637e+02  1.0133231287662881e+02  1.0142047506143533e+02  1.0120257379891197e+02  1.0110001071111560e+02  1.0100447892426173e+02  1.0091736104701887e+02  1.0083721685397079e+02  1.0076376215573197e+02  1.0069678790426042e+02  1.0063613543832233e+02  1.0146075666335889e+02  1.0155173016346791e+02  1.0131321847094451e+02  1.0120440255005492e+02  1.0110572849704980e+02  1.0101931071302430e+02  1.0094206862434655e+02  1.0087297106775127e+02  1.0081113275496948e+02  1.0075594794776758e+02  1.0070693930300162e+02  1.0158594040874851e+02  1.0167861161324858e+02  1.0142142343647265e+02  1.0130516075771665e+02  1.0120142482814629e+02  1.0111347507953026e+02  1.0103692276159285e+02  1.0097017139175207e+02  1.0091172492661534e+02  1.0086054114630366e+02  1.0081580440594314e+02  1.0077687166459108e+02  1.0170542653040825e+02  1.0179896920694804e+02  1.0152516820551702e+02  1.0140117114234157e+02  1.0129142443209983e+02  1.0120051274782989e+02  1.0112306158073243e+02  1.0105708233897080e+02  1.0100056957276848e+02  1.0095209206625911e+02  1.0091050975842577e+02  1.0087492738862090e+02  1.0084462855146353e+02  1.0181769807651150e+02  1.0191146148718829e+02  1.0162309020038408e+02  1.0149154151065915e+02  1.0137542955853992e+02  1.0128072677899132e+02  1.0120131018159363e+02  1.0113493824073252e+02  1.0107920338425214e+02  1.0103234840367482e+02  1.0099294251986085e+02  1.0095985205631844e+02  1.0093216700919199e+02  1.0090915681250782e+02  1.0192180921018418e+02  1.0201527269535832e+02  1.0171425291232548e+02  1.0157559064697105e+02  1.0145314413188828e+02  1.0135425138221360e+02  1.0127220977878738e+02  1.0120463209204333e+02  1.0114880386641588e+02  1.0110270592977656e+02  1.0106465896427157e+02  1.0103331533016279e+02  1.0100758366006318e+02  1.0098658404990105e+02  1.0201719168090229e+02  1.0210992918112794e+02  1.0179804383407505e+02  1.0165284258299771e+02  1.0152433057411537e+02  1.0142114664768356e+02  1.0133612918687352e+02  1.0126682120484982e+02  1.0121027872745577e+02  1.0116427869628716e+02  1.0112693642842714e+02  1.0109671944151199e+02  1.0107237344105486e+02  1.0105287974526260e+02  1.0210353040322147e+02  1.0219518413799626e+02  1.0187408044137682e+02  1.0172298220306136e+02  1.0158882054822620e+02  1.0148144989311089e+02  1.0139333539136629e+02  1.0132200151863623e+02  1.0126433513037369e+02  1.0121795836097226e+02  1.0118082105913189e+02  1.0099095668222299e+02  1.0091300720345625e+02  1.0100390095660538e+02  1.0105783068027945e+02  1.0089340723406146e+02  1.0079430993799154e+02  1.0078133497403638e+02  1.0065969337782650e+02  1.0066593018667797e+02  1.0052320241648165e+02  1.0055177608768038e+02  1.0039055212391963e+02  1.0044228716322318e+02  1.0026484090942724e+02  1.0033936587485583e+02  1.0014775123695570e+02  1.0004011750430841e+02  1.0024408812595362e+02  1.0109591998988692e+02  1.0117320784513247e+02  1.0099541380714874e+02  1.0089410928950706e+02  1.0079170100488922e+02  1.0069108227645596e+02  1.0059465408282905e+02  1.0050385322246458e+02  1.0041961244788376e+02  1.0121755798246690e+02  1.0130110378260561e+02  1.0110397171638813e+02  1.0100411155822778e+02  1.0090715135647945e+02  1.0081487934612819e+02  1.0072778621977609e+02  1.0064648565012487e+02  1.0057143708410796e+02  1.0050288994045742e+02  1.0134716771483288e+02  1.0143465054086008e+02  1.0121590517968083e+02  1.0111225664320605e+02  1.0101549563372990e+02  1.0092720464398701e+02  1.0084594373652270e+02  1.0077146598590311e+02  1.0070357747560500e+02  1.0064212828129570e+02  1.0058695937976840e+02  1.0147727748203629e+02  1.0156744502882938e+02  1.0132798902164399e+02  1.0121802174207541e+02  1.011180636405907