<?xml version="1.0"?>
<VTKFile type="UnstructuredGrid"  version="0.1"  >
<UnstructuredGrid>
<Piece  NumberOfPoints="7451" NumberOfCells="37868">
<Points>
<DataArray  type="Float64"  NumberOfComponents="3"  format="ascii">0 0.45 0.35  0 0.45 0.375  0 0.475 0.375  0.025 0.475 0.375  0.025 0.475 0.4  0 0.45 0.4  0 0.475 0.4  0.025 0.5 0.4  0 0.5 0.4  0 0.5 0.375  0.05 0.475 0.375  0.05 0.475 0.4  0.05 0.5 0.4  0.075 0.5 0.4  0.025 0.525 0.4  0 0.525 0.4  0 0.525 0.375  0.025 0.55 0.4  0 0.55 0.4  0 0.55 0.375  0.025 0.575 0.4  0 0.575 0.4  0 0.575 0.375  0.025 0.6 0.4  0 0.6 0.4  0 0.6 0.375  0.025 0.625 0.4  0 0.625 0.4  0 0.425 0.4  0 0.425 0.425  0 0.45 0.425  0.025 0.45 0.425  0.025 0.475 0.425  0 0.475 0.425  0.025 0.5 0.425  0 0.5 0.425  0.05 0.5 0.425  0.05 0.475 0.425  0.075 0.5 0.425  0.025 0.525 0.425  0 0.525 0.425  0.05 0.525 0.4  0.05 0.525 0.425  0.075 0.525 0.4  0.075 0.525 0.425  0.1 0.5 0.4  0.1 0.525 0.4  0.1 0.525 0.425  0.1 0.5 0.425  0.125 0.5 0.425  0.125 0.525 0.425  0.025 0.55 0.425  0 0.55 0.425  0.05 0.55 0.4  0.05 0.55 0.425  0.075 0.55 0.4  0.075 0.55 0.425  0.1 0.55 0.4  0.1 0.55 0.425  0.125 0.55 0.425  0.025 0.575 0.425  0 0.575 0.425  0.05 0.575 0.4  0.05 0.575 0.425  0.075 0.575 0.4  0.075 0.575 0.425  0.1 0.575 0.425  0.125 0.575 0.425  0.025 0.6 0.425  0 0.6 0.425  0.05 0.6 0.4  0.05 0.6 0.425  0.075 0.6 0.425  0.1 0.6 0.425  0.025 0.625 0.425  0 0.625 0.425  0.05 0.625 0.425  0.075 0.625 0.425  0.025 0.65 0.425  0 0.65 0.425  0 0.65 0.4  0.05 0.65 0.425  0.025 0.675 0.425  0 0.675 0.425  0 0.4 0.425  0 0.4 0.45  0 0.425 0.45  0.025 0.425 0.45  0.025 0.45 0.45  0 0.45 0.45  0.025 0.475 0.45  0 0.475 0.45  0.05 0.45 0.45  0.05 0.475 0.45  0.025 0.5 0.45  0 0.5 0.45  0.05 0.5 0.45  0.075 0.475 0.45  0.075 0.5 0.45  0.025 0.525 0.45  0 0.525 0.45  0.05 0.525 0.45  0.075 0.525 0.45  0.1 0.525 0.45  0.1 0.5 0.45  0.125 0.525 0.45  0.025 0.55 0.45  0 0.55 0.45  0.05 0.55 0.45  0.075 0.55 0.45  0.1 0.55 0.45  0.125 0.55 0.45  0.15 0.55 0.425  0.15 0.55 0.45  0.025 0.575 0.45  0 0.575 0.45  0.05 0.575 0.45  0.075 0.575 0.45  0.1 0.575 0.45  0.125 0.575 0.45  0.15 0.575 0.425  0.15 0.575 0.45  0.175 0.575 0.45  0.025 0.6 0.45  0 0.6 0.45  0.05 0.6 0.45  0.075 0.6 0.45  0.1 0.6 0.45  0.125 0.6 0.45  0.15 0.6 0.45  0.175 0.6 0.45  0.025 0.625 0.45  0 0.625 0.45  0.05 0.625 0.45  0.075 0.625 0.45  0.1 0.625 0.45  0.125 0.625 0.45  0.025 0.65 0.45  0 0.65 0.45  0.05 0.65 0.45  0.075 0.65 0.45  0.1 0.65 0.45  0.025 0.675 0.45  0 0.675 0.45  0.05 0.675 0.45  0.075 0.675 0.45  0.025 0.7 0.45  0 0.7 0.45  0 0.7 0.425  0.05 0.7 0.45  0.025 0.725 0.45  0 0.725 0.45  0.025 0.425 0.475  0 0.4 0.475  0 0.425 0.475  0.025 0.45 0.475  0 0.45 0.475  0.05 0.45 0.475  0.025 0.475 0.475  0 0.475 0.475  0.05 0.475 0.475  0.075 0.475 0.475  0.025 0.5 0.475  0 0.5 0.475  0.05 0.5 0.475  0.075 0.5 0.475  0.1 0.5 0.475  0.025 0.525 0.475  0 0.525 0.475  0.05 0.525 0.475  0.075 0.525 0.475  0.1 0.525 0.475  0.125 0.525 0.475  0.025 0.55 0.475  0 0.55 0.475  0.05 0.55 0.475  0.075 0.55 0.475  0.1 0.55 0.475  0.125 0.55 0.475  0.15 0.55 0.475  0.025 0.575 0.475  0 0.575 0.475  0.05 0.575 0.475  0.075 0.575 0.475  0.1 0.575 0.475  0.125 0.575 0.475  0.15 0.575 0.475  0.175 0.575 0.475  0.025 0.6 0.475  0 0.6 0.475  0.05 0.6 0.475  0.075 0.6 0.475  0.1 0.6 0.475  0.125 0.6 0.475  0.15 0.6 0.475  0.175 0.6 0.475  0.2 0.6 0.475  0.025 0.625 0.475  0 0.625 0.475  0.05 0.625 0.475  0.075 0.625 0.475  0.1 0.625 0.475  0.125 0.625 0.475  0.15 0.625 0.475  0.175 0.625 0.475  0.2 0.625 0.475  0.025 0.65 0.475  0 0.65 0.475  0.05 0.65 0.475  0.075 0.65 0.475  0.1 0.65 0.475  0.125 0.65 0.45  0.125 0.65 0.475  0.15 0.65 0.475  0.025 0.675 0.475  0 0.675 0.475  0.05 0.675 0.475  0.075 0.675 0.475  0.1 0.675 0.475  0.125 0.675 0.475  0.15 0.675 0.475  0.025 0.7 0.475  0 0.7 0.475  0.05 0.7 0.475  0.075 0.7 0.475  0.1 0.7 0.475  0.025 0.725 0.475  0 0.725 0.475  0.05 0.725 0.475  0.075 0.725 0.475  0.025 0.75 0.45  0.025 0.75 0.475  0 0.75 0.45  0 0.75 0.475  0.05 0.75 0.475  0.025 0.775 0.475  0 0.775 0.475  0 0.775 0.45  0.05 0.775 0.475  0.025 0.8 0.475  0 0.8 0.475  0 0.375 0.475  0 0.375 0.5  0 0.4 0.5  0.025 0.4 0.5  0.025 0.425 0.5  0 0.425 0.5  0.025 0.45 0.5  0 0.45 0.5  0.05 0.425 0.5  0.05 0.45 0.5  0.025 0.475 0.5  0 0.475 0.5  0.05 0.475 0.5  0.075 0.475 0.5  0.025 0.5 0.5  0 0.5 0.5  0.05 0.5 0.5  0.075 0.5 0.5  0.1 0.5 0.5  0.025 0.525 0.5  0 0.525 0.5  0.05 0.525 0.5  0.075 0.525 0.5  0.1 0.525 0.5  0.125 0.525 0.5  0.025 0.55 0.5  0 0.55 0.5  0.05 0.55 0.5  0.075 0.55 0.5  0.1 0.55 0.5  0.125 0.55 0.5  0.15 0.55 0.5  0.025 0.575 0.5  0 0.575 0.5  0.05 0.575 0.5  0.075 0.575 0.5  0.1 0.575 0.5  0.125 0.575 0.5  0.15 0.575 0.5  0.175 0.575 0.5  0.025 0.6 0.5  0 0.6 0.5  0.05 0.6 0.5  0.075 0.6 0.5  0.1 0.6 0.5  0.125 0.6 0.5  0.15 0.6 0.5  0.175 0.6 0.5  0.2 0.6 0.5  0.025 0.625 0.5  0 0.625 0.5  0.05 0.625 0.5  0.075 0.625 0.5  0.1 0.625 0.5  0.125 0.625 0.5  0.15 0.625 0.5  0.175 0.625 0.5  0.2 0.625 0.5  0.225 0.625 0.5  0.025 0.65 0.5  0 0.65 0.5  0.05 0.65 0.5  0.075 0.65 0.5  0.1 0.65 0.5  0.125 0.65 0.5  0.15 0.65 0.5  0.175 0.65 0.475  0.175 0.65 0.5  0.2 0.65 0.475  0.2 0.65 0.5  0.225 0.65 0.5  0.025 0.675 0.5  0 0.675 0.5  0.05 0.675 0.5  0.075 0.675 0.5  0.1 0.675 0.5  0.125 0.675 0.5  0.15 0.675 0.5  0.175 0.675 0.475  0.175 0.675 0.5  0.2 0.675 0.5  0.225 0.675 0.5  0.025 0.7 0.5  0 0.7 0.5  0.05 0.7 0.5  0.075 0.7 0.5  0.1 0.7 0.5  0.125 0.7 0.475  0.125 0.7 0.5  0.15 0.7 0.475  0.15 0.7 0.5  0.175 0.7 0.5  0.2 0.7 0.5  0.025 0.725 0.5  0 0.725 0.5  0.05 0.725 0.5  0.075 0.725 0.5  0.1 0.725 0.475  0.1 0.725 0.5  0.125 0.725 0.5  0.15 0.725 0.5  0.175 0.725 0.5  0.025 0.75 0.5  0 0.75 0.5  0.05 0.75 0.5  0.075 0.75 0.475  0.075 0.75 0.5  0.1 0.75 0.475  0.1 0.75 0.5  0.125 0.75 0.5  0.025 0.775 0.5  0 0.775 0.5  0.05 0.775 0.5  0.075 0.775 0.475  0.075 0.775 0.5  0.1 0.775 0.475  0.1 0.775 0.5  0.125 0.775 0.5  0.025 0.8 0.5  0 0.8 0.5  0.05 0.8 0.5  0.075 0.8 0.5  0.1 0.8 0.5  0.125 0.8 0.5  0.025 0.825 0.475  0.025 0.825 0.5  0 0.825 0.475  0 0.825 0.5  0.05 0.825 0.5  0.025 0.85 0.475  0.025 0.85 0.5  0 0.85 0.475  0 0.85 0.5  0.05 0.85 0.5  0.025 0.875 0.5  0 0.875 0.5  0 0.875 0.475  0.05 0.875 0.5  0.025 0.9 0.5  0 0.9 0.5  0 0.9 0.475  0.025 0.925 0.5  0 0.925 0.5  0.025 0.4 0.525  0 0.375 0.525  0 0.4 0.525  0.025 0.425 0.525  0 0.425 0.525  0.05 0.425 0.525  0.025 0.45 0.525  0 0.45 0.525  0.05 0.45 0.525  0.075 0.45 0.525  0.025 0.475 0.525  0 0.475 0.525  0.05 0.475 0.525  0.075 0.475 0.525  0.025 0.5 0.525  0 0.5 0.525  0.05 0.5 0.525  0.075 0.5 0.525  0.1 0.475 0.525  0.1 0.5 0.525  0.025 0.525 0.525  0 0.525 0.525  0.05 0.525 0.525  0.075 0.525 0.525  0.1 0.525 0.525  0.125 0.5 0.525  0.125 0.525 0.525  0.025 0.55 0.525  0 0.55 0.525  0.05 0.55 0.525  0.075 0.55 0.525  0.1 0.55 0.525  0.125 0.55 0.525  0.15 0.525 0.525  0.15 0.55 0.525  0.025 0.575 0.525  0 0.575 0.525  0.05 0.575 0.525  0.075 0.575 0.525  0.1 0.575 0.525  0.125 0.575 0.525  0.15 0.575 0.525  0.175 0.575 0.525  0.025 0.6 0.525  0 0.6 0.525  0.05 0.6 0.525  0.075 0.6 0.525  0.1 0.6 0.525  0.125 0.6 0.525  0.15 0.6 0.525  0.175 0.6 0.525  0.2 0.6 0.525  0.025 0.625 0.525  0 0.625 0.525  0.05 0.625 0.525  0.075 0.625 0.525  0.1 0.625 0.525  0.125 0.625 0.525  0.15 0.625 0.525  0.175 0.625 0.525  0.2 0.625 0.525  0.225 0.625 0.525  0.025 0.65 0.525  0 0.65 0.525  0.05 0.65 0.525  0.075 0.65 0.525  0.1 0.65 0.525  0.125 0.65 0.525  0.15 0.65 0.525  0.175 0.65 0.525  0.2 0.65 0.525  0.225 0.65 0.525  0.25 0.625 0.5  0.25 0.65 0.5  0.25 0.65 0.525  0.25 0.625 0.525  0.275 0.625 0.5  0.275 0.65 0.5  0.275 0.65 0.525  0.3 0.625 0.5  0.3 0.65 0.5  0.3 0.65 0.525  0.325 0.65 0.525  0.025 0.675 0.525  0 0.675 0.525  0.05 0.675 0.525  0.075 0.675 0.525  0.1 0.675 0.525  0.125 0.675 0.525  0.15 0.675 0.525  0.175 0.675 0.525  0.2 0.675 0.525  0.225 0.675 0.525  0.25 0.675 0.5  0.25 0.675 0.525  0.275 0.675 0.5  0.275 0.675 0.525  0.3 0.675 0.525  0.325 0.675 0.525  0.025 0.7 0.525  0 0.7 0.525  0.05 0.7 0.525  0.075 0.7 0.525  0.1 0.7 0.525  0.125 0.7 0.525  0.15 0.7 0.525  0.175 0.7 0.525  0.2 0.7 0.525  0.225 0.7 0.525  0.25 0.7 0.525  0.275 0.7 0.525  0.3 0.7 0.525  0.025 0.725 0.525  0 0.725 0.525  0.05 0.725 0.525  0.075 0.725 0.525  0.1 0.725 0.525  0.125 0.725 0.525  0.15 0.725 0.525  0.175 0.725 0.525  0.2 0.725 0.5  0.2 0.725 0.525  0.225 0.725 0.525  0.025 0.75 0.525  0 0.75 0.525  0.05 0.75 0.525  0.075 0.75 0.525  0.1 0.75 0.525  0.125 0.75 0.525  0.15 0.75 0.5  0.15 0.75 0.525  0.175 0.75 0.5  0.175 0.75 0.525  0.2 0.75 0.525  0.225 0.75 0.525  0.025 0.775 0.525  0 0.775 0.525  0.05 0.775 0.525  0.075 0.775 0.525  0.1 0.775 0.525  0.125 0.775 0.525  0.15 0.775 0.5  0.15 0.775 0.525  0.175 0.775 0.525  0.2 0.775 0.525  0.025 0.8 0.525  0 0.8 0.525  0.05 0.8 0.525  0.075 0.8 0.525  0.1 0.8 0.525  0.125 0.8 0.525  0.15 0.8 0.5  0.15 0.8 0.525  0.175 0.8 0.525  0.025 0.825 0.525  0 0.825 0.525  0.05 0.825 0.525  0.075 0.825 0.5  0.075 0.825 0.525  0.1 0.825 0.5  0.1 0.825 0.525  0.125 0.825 0.525  0.15 0.825 0.525  0.175 0.825 0.525  0.025 0.85 0.525  0 0.85 0.525  0.05 0.85 0.525  0.075 0.85 0.5  0.075 0.85 0.525  0.1 0.85 0.5  0.1 0.85 0.525  0.125 0.85 0.525  0.025 0.875 0.525  0 0.875 0.525  0.05 0.875 0.525  0.075 0.875 0.5  0.075 0.875 0.525  0.1 0.875 0.525  0.125 0.875 0.525  0.025 0.9 0.525  0 0.9 0.525  0.05 0.9 0.5  0.05 0.9 0.525  0.075 0.9 0.525  0.1 0.9 0.525  0.025 0.925 0.525  0 0.925 0.525  0.05 0.925 0.525  0.075 0.925 0.525  0.025 0.95 0.525  0 0.95 0.525  0 0.95 0.5  0.05 0.95 0.525  0.025 0.975 0.525  0 0.975 0.525  0 0.975 0.5  0.025 1 0.525  0 1 0.525  0 1 0.5  0 0.35 0.525  0 0.35 0.55  0 0.375 0.55  0.025 0.375 0.55  0.025 0.4 0.55  0 0.4 0.55  0.025 0.425 0.55  0 0.425 0.55  0.05 0.4 0.55  0.05 0.425 0.55  0.025 0.45 0.55  0 0.45 0.55  0.05 0.45 0.55  0.075 0.425 0.55  0.075 0.45 0.55  0.025 0.475 0.55  0 0.475 0.55  0.05 0.475 0.55  0.075 0.475 0.55  0.1 0.45 0.55  0.1 0.475 0.55  0.025 0.5 0.55 
[...]
<PointData  Scalars="f_153"> 
<DataArray  type="Float64"  Name="f_153"  format="ascii">1.0244066053792481e+02  1.0248940482927000e+02  1.0250009765147280e+02  1.0242378725146577e+02  1.0246600299085580e+02  1.0252865117313395e+02  1.0253958125605516e+02  1.0247128186166397e+02  1.0254152253661789e+02  1.0250199344825683e+02  1.0215556150088278e+02  1.0219260304448464e+02  1.0219648597534342e+02  1.0202207931117353e+02  1.0246783951741592e+02  1.0253448078147395e+02  1.0249509802655948e+02  1.0245566724572555e+02  1.0251843319540316e+02  1.0247938833023073e+02  1.0243473039762854e+02  1.0249333000438133e+02  1.0245481394846502e+02  1.0240497132080503e+02  1.0245909814697154e+02  1.0242130063602052e+02  1.0236631453784989e+02  1.0241564736420975e+02  1.0250869836237747e+02  1.0253820849871163e+02  1.0255849057586560e+02  1.0248465531385357e+02  1.0249894294480347e+02  1.0256960351073599e+02  1.0250433031689329e+02  1.0257158087814487e+02  1.0222529120899549e+02  1.0222133570215333e+02  1.0204892207723964e+02  1.0250083541811183e+02  1.0256442840271343e+02  1.0219247745894079e+02  1.0222121501288920e+02  1.0201865368792893e+02  1.0204544031238439e+02  1.0186283563977034e+02  1.0185962737882591e+02  1.0188412237657610e+02  1.0188738548717583e+02  1.0175834644701735e+02  1.0175535948059859e+02  1.0248844968641082e+02  1.0254812354023117e+02  1.0218056845165421e+02  1.0220909824322852e+02  1.0200795104484668e+02  1.0203455076588241e+02  1.0184974152282729e+02  1.0187406157920405e+02  1.0174609885573162e+02  1.0246713894908564e+02  1.0252261711770413e+02  1.0216073291948112e+02  1.0218891539523173e+02  1.0198995151317278e+02  1.0201623405610081e+02  1.0185718399232826e+02  1.0173054135066792e+02  1.0243684646400170e+02  1.0248783715531728e+02  1.0213293100811045e+02  1.0216062760470196e+02  1.0199046029924696e+02  1.0183346008525687e+02  1.0239749828780246e+02  1.0244369516319294e+02  1.0212418830933174e+02  1.0195719412195730e+02  1.0234901138054698e+02  1.0239009541190238e+02  1.0236287918327028e+02  1.0207955168195775e+02  1.0229130509198463e+02  1.0232694794941645e+02  1.0250869836237423e+02  1.0252865117313438e+02  1.0255849057587429e+02  1.0248465531385182e+02  1.0250820116573942e+02  1.0257900150644517e+02  1.0252268719089605e+02  1.0259024229696983e+02  1.0222965515924538e+02  1.0224180470755800e+02  1.0252815640103820e+02  1.0259224624408404e+02  1.0224581347864951e+02  1.0206415684442612e+02  1.0206813246112505e+02  1.0252462664677672e+02  1.0258501903980824e+02  1.0224169022011185e+02  1.0206461220782273e+02  1.0190163160179922e+02  1.0190493289930997e+02  1.0177154829789409e+02  1.0251208948481943e+02  1.0256853834207092e+02  1.0222942620184281e+02  1.0205359023571319e+02  1.0189144647412540e+02  1.0176217177242934e+02  1.0164091142257899e+02  1.0165583321720553e+02  1.0249051113673457e+02  1.0254275545377882e+02  1.0220899634728372e+02  1.0203504755394933e+02  1.0187435874891226e+02  1.0174641842609465e+02  1.0162645004578803e+02  1.0164118703798754e+02  1.0155676979196208e+02  1.0245983560720435e+02  1.0250759923451452e+02  1.0218036258259845e+02  1.0200895500288250e+02  1.0185033952156739e+02  1.0172425160145883e+02  1.0162055665606860e+02  1.0153738490376618e+02  1.0241999018807216e+02  1.0246298253908692e+02  1.0214347962312264e+02  1.0197527837685939e+02  1.0181935381299218e+02  1.0169562358081650e+02  1.0237089375996456e+02  1.0240881168423468e+02  1.0209830358389975e+02  1.0193398595898839e+02  1.0178136640744087e+02  1.0231246853937157e+02  1.0234499971851926e+02  1.0204480400764353e+02  1.0188505884864885e+02  1.0224465624276750e+02  1.0227148466013733e+02  1.0225418652615100e+02  1.0198298017163357e+02  1.0216744010765257e+02  1.0218825445071043e+02  1.0249894294480187e+02  1.0253958125605602e+02  1.0256960351073869e+02  1.0252268719089518e+02  1.0259024229697640e+02  1.0224180470754949e+02  1.0253730003461310e+02  1.0260155560231448e+02  1.0225404801278188e+02  1.0207572957584797e+02  1.0254282418757128e+02  1.0260357656036750e+02  1.0225809056277201e+02  1.0207974137350772e+02  1.0191550693854350e+02  1.0253927739990195e+02  1.0259631084805625e+02  1.0225394102496891e+02  1.0207620041904134e+02  1.0191218423524720e+02  1.0178131057999572e+02  1.0252665130272706e+02  1.0257973624990709e+02  1.0224159076057636e+02  1.0206510093949602e+02  1.0190192577076752e+02  1.0177186547068118e+02  1.0166482199555035e+02  1.0250491237743016e+02  1.0255380435829903e+02  1.0222101497039023e+02  1.0204642419460264e+02  1.0188471299373130e+02  1.0175599533022068e+02  1.0165006528850289e+02  1.0156507906359703e+02  1.0247400511971270e+02  1.0251844453392158e+02  1.0219217608820570e+02  1.0202014148834969e+02  1.0186051740200308e+02  1.0173366381484442e+02  1.0162927938233042e+02  1.0154554566004430e+02  1.0147884484414580e+02  1.0243385762568877e+02  1.0247357042172970e+02  1.0215502964156251e+02  1.0198621935746031e+02  1.0182930466283419e+02  1.0170482371833602e+02  1.0160239383244731e+02  1.0152022172650568e+02  1.0145470607882909e+02  1.0238439001267177e+02  1.0241908952431821e+02  1.0210953296756379e+02  1.0194462719964638e+02  1.0179104053158765e+02  1.0166047919011719e+02  1.0166942064433485e+02  1.0156932043633051e+02  1.0232552632418744e+02  1.0235491660943795e+02  1.0205565737786920e+02  1.0189534772260234e+02  1.0174569868145483e+02  1.0162739751265300e+02  1.0152995422298025e+02  1.0225721089220480e+02  1.0228099211728400e+02  1.0199340463529302e+02  1.0183839072004677e+02  1.0169327051929245e+02  1.0217943059819633e+02  1.0219730731743780e+02  1.0192282896577372e+02  1.0177381079929675e+02  1.0208087492033120e+02  1.0209224518442161e+02  1.0209538129919073e+02  1.0210393889127045e+02  1.0184406632701776e+02  1.0199582888339907e+02  1.0200109714335143e+02  1.0199306961660758e+02  1.0175737333990955e+02  1.0189052849624004e+02  1.0188919473546031e+02  1.0250009765147307e+02  1.0250199344825097e+02  1.0254152253661793e+02  1.0247128186166401e+02  1.0250433031689234e+02  1.0257158087814371e+02  1.0252815640103825e+02  1.0259224624408043e+02  1.0222529120899152e+02  1.0224581347864563e+02  1.0254282418756985e+02  1.0260357656036730e+02  1.0225809056277191e+02  1.0207974137350861e+02  1.0254837626168836e+02  1.0260560493652181e+02  1.0226214731292920e+02  1.0208376985842035e+02  1.0191912684782352e+02  1.0254483032780095e+02  1.0259833705666611e+02  1.0225799236863345e+02  1.0208022605975874e+02  1.0191579958033225e+02  1.0178466938866879e+02  1.0253217804039932e+02  1.0258175074223213e+02  1.0224561712337967e+02  1.0206910422646028e+02  1.0190551897580784e+02  1.0177520316443622e+02  1.0166790871359024e+02  1.0251038597486188e+02  1.0255579765539230e+02  1.0222499687486589e+02  1.0205038570251223e+02  1.0188826655522037e+02  1.0175929551749036e+02  1.0165311589337651e+02  1.0156792868624461e+02  1.0247939880636386e+02  1.0252040726774901e+02  1.0219609423237250e+02  1.0202404195058379e+02  1.0186401395449494e+02  1.0173691021187307e+02  1.0163227861114149e+02  1.0154834569785534e+02  1.0148148048988529e+02  1.0243914492427479e+02  1.0247549338933520e+02  1.0215886500140253e+02  1.0199003976196701e+02  1.0183272706363600e+02  1.0170800021903716e+02  1.0160532654714488e+02  1.0152295773375918e+02  1.0145727932181391e+02  1.0140561563379258e+02  1.0238954489518719e+02  1.0242096376040934e+02  1.0211326693347242e+02  1.0194834891575771e+02  1.0179437197234891e+02  1.0167251141303228e+02  1.0157217169564160e+02  1.0148897484541108e+02  1.0149163249225755e+02  1.0142481173195100e+02  1.0142730865347868e+02  1.0137657591438563e+02  1.0233052342458019e+02  1.0235673348289593e+02  1.0205927193553107e+02  1.0189895266843901e+02  1.0174892283443646e+02  1.0163038710602177e+02  1.0153270937856428e+02  1.0145163967549587e+02  1.0145420481796549e+02  1.0139133535732489e+02  1.0134154686859812e+02  1.0226202579069421e+02  1.0228274345741272e+02  1.0199688260158123e+02  1.0184186158007843e+02  1.0169637172579161e+02  1.0157869955999622e+02  1.0158157308393513e+02  1.0148417356252733e+02  1.0148681838357849e+02  1.0141047244195396e+02  1.0134906882388057e+02  1.0218404019277348e+02  1.0219898557604928e+02  1.0192615429051651e+02  1.0177713130145951e+02  1.0163377692736671e+02  1.0163674043502057e+02  1.0152602247019166e+02  1.0143435914450305e+02  1.0136018850282656e+02  1.0209662816565363e+02  1.0210553734730631e+02  1.0184722447136133e+02  1.0170172975730482e+02  1.0170488501822355e+02  1.0156728153960752e+02  1.0157009379411295e+02  1.0146369914699785e+02  1.0199996632943221e+02  1.0200261015740833e+02  1.0176035174205430e+02  1.0162236422101932e+02  1.0162534116698879e+02  1.0149390444298800e+02  1.0149655343757642e+02  1.0139457740931428e+02  1.0189440460619574e+02  1.0189061806213407e+02  1.0166596783518347e+02  1.0153884654426943e+02  1.0141630940242079e+02  1.0131863370215471e+02  1.0177694605676668e+02  1.0178054904226283e+02  1.0176894804397827e+02  1.0177027921857473e+02  1.0156474693705897e+02  1.0165605965837847e+02  1.0165938282128744e+02  1.0164153238674155e+02  1.0164277117325501e+02  1.0145769775294167e+02  1.0153245107840952e+02  1.0150998368549234e+02  1.0150883465156770e+02  1.0134627959286381e+02  1.0140212781930261e+02  1.0137500649770763e+02  1.0137394073110735e+02  1.0127209521564598e+02  1.0124275417985118e+02  1.0246783951741529e+02  1.0249509802655787e+02  1.0253448078147032e+02  1.0250083541810605e+02  1.0256442840271099e+02  1.0222121501288707e+02  1.0252462664677429e+02  1.0258501903980631e+02  1.0224169022011041e+02  1.0206461220782307e+02  1.0253927739990037e+02  1.0259631084805334e+02  1.0225394102496838e+02  1.0207620041904006e+02  1.0254483032780048e+02  1.0259833705666560e+02  1.0225799236863001e+02  1.0208022605976251e+02  1.0191218423524458e+02  1.0191579958032892e+02  1.0254130315250676e+02  1.0259110338078300e+02  1.0225385291847891e+02  1.0207669729037028e+02  1.0191248460351824e+02  1.0178466938866562e+02  1.0178163271335391e+02  1.0252868750008231e+02  1.0257458758727286e+02  1.0224151403845998e+02  1.0206560832576179e+02  1.0190223311372360e+02  1.0177219288353932e+02  1.0167387958758854e+02  1.0166510362368408e+02  1.0250694986411881e+02  1.0254874118358269e+02  1.0222095093333672e+02  1.0204694041961349e+02  1.0188502655253308e+02  1.0175632708524680e+02  1.0165034913996806e+02  1.0156533239654226e+02  1.0247603476842276e+02  1.0251349335373415e+02  1.0219212603995904e+02  1.0202066487376634e+02  1.0186083641596878e+02  1.0173399897180302e+02  1.0162956466705361e+02  1.0154579873912758e+02  1.0147906091342671e+02  1.0243587035619558e+02  1.0246875743644148e+02  1.0215499488543435e+02  1.0198674822546617e+02  1.0182962837417227e+02  1.0170516134076145e+02  1.0160267976726470e+02  1.0152047384141999e+02  1.0145491974158696e+02  1.0140334790467766e+02  1.0238637681859582e+02  1.0241444044713768e+02  1.0210951479992556e+02  1.0194515987522169e+02  1.0179136819012484e+02  1.0166975980666653e+02  1.0156960625420359e+02  1.0148922530704382e+02  1.0142502240865969e+02  1.0137437926954354e+02  1.0136547817273262e+02  1.0133700561896774e+02  1.0133487007033692e+02  1.0136327283047061e+02  1.0133474090747222e+02  1.0130653733165038e+02  1.0130443894144715e+02  1.0131156678498729e+02  1.0128340042196584e+02  1.0128131975627765e+02  1.0126402205786613e+02  1.0232747831243267e+02  1.0235045641996564e+02  1.0205565707841178e+02  1.0189588253657465e+02  1.0174602954996708e+02  1.0162773730828883e+02  1.0153023918331631e+02  1.0145188782776253e+02  1.0138913574985229e+02  1.0133943460703792e+02  1.0130249017253078e+02  1.0130043786350687e+02  1.0127218917557568e+02  1.0127017378237373e+02  1.0124695957519023e+02  1.0122938375924349e+02  1.0225911934032612e+02  1.0227674473536250e+02  1.0199342345370796e+02  1.0183892601399425e+02  1.0169360388001950e+02  1.0157903911089360e+02  1.0148445696297473e+02  1.0140825890184749e+02  1.0134696906839871e+02  1.0129813354427452e+02  1.0125950923252479e+02  1.0122923045793021e+02  1.0120571688028848e+02  1.0218128703529696e+02  1.0219329518240956e+02  1.0192286810486532e+02  1.0177434493366417e+02  1.0163411209036877e+02  1.0152361763237965e+02  1.0143211950523396e+02  1.0135809133152891e+02  1.0130014927599314e+02  1.0129816243040648e+02  1.0125000493877036e+02  1.0209404150142180e+02  1.0210018243166098e+02  1.0184412692209690e+02  1.0170226112390939e+02  1.0156761785359755e+02  1.0146143582452984e+02  1.0137516819627659e+02  1.0137306265020450e+02  1.0130304896853879e+02  1.0130108062129938e+02  1.0124226935480073e+02  1.0119446707744892e+02  1.0199755747903878e+02  1.0199761412132479e+02  1.0175745643472922e+02  1.0162289126155245e+02  1.0149424130927861e+02  1.0139246678704623e+02  1.0130904606489194e+02  1.0130708602731731e+02  1.0123684452701856e+02  1.0117873162117681e+02  1.0189218246538027e+02  1.0188599944690357e+02  1.0166328571531545e+02  1.0153657990651929e+02  1.0141417060955413e+02  1.0131668546857614e+02  1.0123573412332209e+02  1.0123392988800094e+02  1.0116489085102768e+02  1.0177851942586248e+02  1.0176605036235597e+02  1.0156228558812394e+02  1.0144591341185019e+02  1.0144383653324131e+02  1.0132962401427568e+02  1.0132766575725115e+02  1.0123404523727841e+02  1.0115323408657271e+02  1.0108456819885302e+02  1.0165754767793530e+02  1.0163893655552097e+02  1.0145546057150236e+02  1.0134725507276120e+02  1.0134537103064251e+02  1.0123681682516326e+02  1.0123504350591777e+02  1.0114442712852245e+02  1.0153080757640228e+02  1.0150653798508078e+02  1.0134426481809933e+02  1.0124380461829767e+02  1.0124211240910549e+02  1.0113662117817668e+02  1.0104754187205637e+02  1.0140066690821284e+02  1.0137193216289563e+02  1.0123254267052710e+02  1.0123074234828445e+02  1.0113517376555259e+02  1.0103257758709526e+02  1.0127080153536735e+02  1.0124001464819280e+02  1.0111763697813565e+02  1.0102564931718319e+02  1.0114699088699972e+02  1.0112070606205704e+02  1.0112314989635500e+02  1.0100809433767489e+02  1.0103430413377502e+02  1.0103403307420675e+02  1.0103630095850316e+02  1.0096219773398214e+02  1.0098024676707402e+02  1.0098286214457949e+02  1.0244618964149581e+02  1.0243089715393445e+02  1.0247938833023093e+02  1.0241366150276606e+02  1.0245566724572573e+02  1.0251843319539751e+02  1.0248844968640680e+02  1.0254812354023358e+02  1.0218056845165204e+02  1.0220909824322446e+02  1.0251208948481798e+02  1.0256853834207574e+02  1.0222942620184183e+02  1.0203455076588538e+02  1.0205359023571251e+02  1.0252665130272878e+02  1.0257973624990954e+02  1.0224159076057575e+02  1.0206510093949380e+02  1.0189144647412517e+02  1.0190192577076319e+02  1.0253217804040101e+02  1.0258175074223196e+02  1.0224561712337727e+02  1.0206910422646217e+02  1.0190551897580572e+02  1.0177186547067588e+02  1.0177520316443069e+02  1.0252868750008527e+02  1.0257458758727273e+02  1.0224151403846051e+02  1.0206560832576235e+02  1.0190223311372242e+02  1.0177219288353500e+02  1.0166790871359284e+02  1.0166510362368479e+02  1.0251617123294386e+02  1.0255822441671076e+02  1.0222927278237903e+02  1.0205460736616469e+02  1.0189206191702841e+02  1.0176282689543939e+02  1.0165639597600281e+02  1.0157101341748533e+02  1.0249459548626375e+02  1.0253261238183833e+02  1.0220886828808312e+02  1.0203608234601377e+02  1.0187498660443681e+02  1.0174708221151089e+02  1.0164175422215128e+02  1.0155727533817070e+02  1.0246390431887752e+02  1.0249768001623964e+02  1.0218026248982477e+02  1.0201000410204315e+02  1.0185097826763646e+02  1.0172492216808048e+02  1.0162112668451623e+02  1.0153788992250333e+02  1.0147156644851651e+02  1.0242402511139235e+02  1.0245333959856245e+02  1.0214341010440255e+02  1.0197633842960082e+02  1.0182000193297132e+02  1.0169629905434694e+02  1.0159444258071356e+02  1.0151275521026490e+02  1.0144760777142386e+02  1.0139634176998851e+02  1.0237487688328756e+02  1.0239949651590301e+02  1.0209826723567325e+02  1.0193505361671258e+02  1.0178202239935268e+02  1.0166115771711249e+02  1.0156161318673935e+02  1.0148173851970408e+02  1.0141793359377507e+02  1.0136759078228097e+02  1.0132829429060932e+02  1.0135648219384920e+02  1.0129800118921800e+02  1.0231638206538105e+02  1.0233606240193095e+02  1.0204480339590624e+02  1.0188613077302570e+02  1.0173701196523152e+02  1.0161943998209090e+02  1.0152253275688891e+02  1.0144467407517858e+02  1.0138231062376927e+02  1.0133290420045000e+02  1.0129411772482483e+02  1.0126399178659452e+02  1.0124085657534761e+02  1.0127495895075698e+02  1.0122331381620968e+02  1.0224848269989175e+02  1.0226297321344921e+02  1.0198301780558690e+02  1.0182957746013467e+02  1.0168496012089483e+02  1.0157108955380254e+02  1.0147707855202445e+02  1.0140135865836274e+02  1.0134044787756979e+02  1.0129190177699256e+02  1.0125348602812194e+02  1.0122334654880278e+02  1.0119991524414569e+02  1.0118188814035737e+02  1.0116818858094811e+02  1.0217116250881902e+02  1.0218021399265230e+02  1.0191296119534181e+02  1.0176544524880484e+02  1.0162588514791879e+02  1.0151605672613832e+02  1.0142510889881066e+02  1.0135154403297574e+02  1.0129198491435378e+02  1.0124411236104724e+02  1.0121150853023470e+02  1.0120582399836009e+02  1.0117539616148261e+02  1.0115138319089094e+02  1.0113259189416058e+02  1.0208447698112965e+02  1.0208785298811245e+02  1.0183476483121413e+02  1.0169385190186966e+02  1.0155984723810141e+02  1.0145430163956932e+02  1.0136645751936982e+02  1.0129492427008897e+02  1.0123647446733732e+02  1.0118895404552826e+02  1.0115042719733636e+02  1.0111932862857329e+02  1.0198859474553120e+02  1.0198608933390300e+02  1.0174867917028008e+02  1.0161500880266367e+02  1.0148696202883836e+02  1.0138579377065155e+02  1.0130092130289036e+02  1.0123111523195831e+02  1.0117335720048807e+02  1.0112570725072089e+02  1.0108643564503485e+02  1.0188385535629440e+02  1.0187532116794686e+02  1.0165512545963114e+02  1.0152925375675454e+02  1.0140741197956288e+02  1.0131050351955956e+02  1.0122823706557047e+02  1.0115962232026806e+02  1.0110192569042039e+02  1.0105347891653378e+02  1.0177085161941126e+02  1.0175624628634574e+02  1.0155476460946797e+02  1.0143708778680609e+02  1.0132145005786231e+02  1.0122837869715450e+02  1.0114804049366590e+02  1.0107979122008364e+02  1.0102127422362408e+02  1.0165055002548810e+02  1.0163001641880074e+02  1.0144858876384308e+02  1.0133921040014212e+02  1.0122938452394412e+02  1.0113929374031521e+02  1.0106446922975718e+02  1.0105979730875787e+02  1.0099499308080712e+02  1.0099073503756483e+02  1.0093023095212534e+02  1.0152447491085354e+02  1.0149848898347116e+02  1.0133803683043429e+02  1.0123653812808952e+02  1.0113152273007022e+02  1.0104295181444607e+02  1.0096682655071844e+02  1.0096269325976317e+02  1.0089123073146483e+02  1.0082727016187928e+02  1.0139497383568103e+02  1.0136471303306149e+02  1.0122513434370300e+02  1.0113016935151209e+02  1.0102803210162820e+02  1.0094275631399137e+02  1.0093871141282295e+02  1.0085546703979222e+02  1.0077957988478619e+02  1.0126569883295269e+02  1.0123354469995080e+02  1.0111260293761266e+02  1.0102118144734348e+02  1.0092266751014810e+02  1.0091865525552248e+02  1.0082529249209500e+02  1.0073617512643932e+02  1.0114239643324318e+02  1.0111487276127257e+02  1.0100355992463733e+02  1.0091025147300991e+02  1.0080211883901180e+02  1.0070036724132858e+02  1.0103006963054328e+02  1.0102859704721216e+02  1.0090632126962888e+02  1.0090220320350558e+02  1.0079560316945980e+02  1.0095843262042335e+02  1.0097458140213294e+02  1.0080096808559486e+02  1.0067488746677378e+02  1.0239320357992810e+02  1.0240697527246273e+02  1.0245481394846426e+02  1.0243473039762685e+02  1.0249333000438085e+02  1.0216073291947745e+02  1.0246713894908511e+02  1.0252261711770197e+02  1.0218891539523277e+02  1.0201623405610060e+02  1.0249051113673700e+02  1.0254275545378464e+02  1.0220899634728299e+02  1.0203504755394852e+02  1.0187435874891206e+02  1.0250491237742791e+02  1.0255380435830511e+02  1.0222101497039176e+02  1.0204642419460595e+02  1.0188471299372685e+02  1.0175599533021349e+02  1.0251038597486487e+02  1.025557976553982