<?xml version="1.0"?>
<VTKFile type="UnstructuredGrid"  version="0.1"  >
<UnstructuredGrid>
<Piece  NumberOfPoints="7447" NumberOfCells="37513">
<Points>
<DataArray  type="Float64"  NumberOfComponents="3"  format="ascii">0.125 0.225 0  0.125 0.25 0  0.15 0.25 0  0.15 0.25 0.025  0.15 0.275 0  0.15 0.275 0.025  0.125 0.275 0  0.175 0.275 0  0.175 0.275 0.025  0.15 0.3 0  0.15 0.3 0.025  0.125 0.3 0  0.175 0.3 0  0.175 0.3 0.025  0.2 0.3 0  0.2 0.3 0.025  0.1 0.3 0  0.125 0.325 0  0.125 0.325 0.025  0.125 0.3 0.025  0.1 0.325 0  0.15 0.325 0  0.15 0.325 0.025  0.175 0.325 0  0.175 0.325 0.025  0.2 0.325 0  0.2 0.325 0.025  0.225 0.325 0  0.225 0.325 0.025  0.125 0.35 0  0.125 0.35 0.025  0.1 0.35 0  0.15 0.35 0  0.15 0.35 0.025  0.175 0.35 0  0.175 0.35 0.025  0.2 0.35 0  0.2 0.35 0.025  0.225 0.35 0  0.225 0.35 0.025  0.25 0.35 0  0.25 0.35 0.025  0.125 0.375 0  0.125 0.375 0.025  0.1 0.375 0  0.15 0.375 0  0.15 0.375 0.025  0.175 0.375 0  0.175 0.375 0.025  0.2 0.375 0  0.2 0.375 0.025  0.225 0.375 0  0.225 0.375 0.025  0.25 0.375 0  0.25 0.375 0.025  0.275 0.375 0  0.275 0.375 0.025  0.125 0.4 0  0.125 0.4 0.025  0.1 0.4 0  0.1 0.4 0.025  0.15 0.4 0  0.15 0.4 0.025  0.175 0.4 0  0.175 0.4 0.025  0.2 0.4 0  0.2 0.4 0.025  0.225 0.4 0  0.225 0.4 0.025  0.25 0.4 0  0.25 0.4 0.025  0.275 0.4 0  0.275 0.4 0.025  0.3 0.375 0  0.3 0.4 0  0.3 0.4 0.025  0.325 0.4 0  0.325 0.4 0.025  0.075 0.4 0  0.1 0.425 0  0.1 0.425 0.025  0.075 0.425 0  0.125 0.425 0  0.125 0.425 0.025  0.15 0.425 0  0.15 0.425 0.025  0.175 0.425 0  0.175 0.425 0.025  0.2 0.425 0  0.2 0.425 0.025  0.225 0.425 0  0.225 0.425 0.025  0.25 0.425 0  0.25 0.425 0.025  0.275 0.425 0  0.275 0.425 0.025  0.3 0.425 0  0.3 0.425 0.025  0.325 0.425 0  0.325 0.425 0.025  0.35 0.425 0  0.35 0.425 0.025  0.1 0.45 0  0.1 0.45 0.025  0.075 0.45 0  0.125 0.45 0  0.125 0.45 0.025  0.15 0.45 0  0.15 0.45 0.025  0.175 0.45 0  0.175 0.45 0.025  0.2 0.45 0  0.2 0.45 0.025  0.225 0.45 0  0.225 0.45 0.025  0.25 0.45 0  0.25 0.45 0.025  0.275 0.45 0  0.275 0.45 0.025  0.3 0.45 0  0.3 0.45 0.025  0.325 0.45 0  0.325 0.45 0.025  0.35 0.45 0  0.35 0.45 0.025  0.375 0.45 0  0.375 0.45 0.025  0.1 0.475 0  0.1 0.475 0.025  0.075 0.475 0  0.125 0.475 0  0.125 0.475 0.025  0.15 0.475 0  0.15 0.475 0.025  0.175 0.475 0  0.175 0.475 0.025  0.2 0.475 0  0.2 0.475 0.025  0.225 0.475 0  0.225 0.475 0.025  0.25 0.475 0  0.25 0.475 0.025  0.275 0.475 0  0.275 0.475 0.025  0.3 0.475 0  0.3 0.475 0.025  0.325 0.475 0  0.325 0.475 0.025  0.35 0.475 0  0.35 0.475 0.025  0.375 0.475 0  0.375 0.475 0.025  0.4 0.475 0  0.4 0.475 0.025  0.1 0.5 0  0.1 0.5 0.025  0.075 0.5 0  0.125 0.5 0  0.125 0.5 0.025  0.15 0.5 0  0.15 0.5 0.025  0.175 0.5 0  0.175 0.5 0.025  0.2 0.5 0  0.2 0.5 0.025  0.225 0.5 0  0.225 0.5 0.025  0.25 0.5 0  0.25 0.5 0.025  0.275 0.5 0  0.275 0.5 0.025  0.3 0.5 0  0.3 0.5 0.025  0.325 0.5 0  0.325 0.5 0.025  0.35 0.5 0  0.35 0.5 0.025  0.375 0.5 0  0.375 0.5 0.025  0.4 0.5 0  0.4 0.5 0.025  0.1 0.525 0  0.1 0.525 0.025  0.075 0.525 0  0.125 0.525 0  0.125 0.525 0.025  0.15 0.525 0  0.15 0.525 0.025  0.175 0.525 0  0.175 0.525 0.025  0.2 0.525 0  0.2 0.525 0.025  0.225 0.525 0  0.225 0.525 0.025  0.25 0.525 0  0.25 0.525 0.025  0.275 0.525 0  0.275 0.525 0.025  0.3 0.525 0  0.3 0.525 0.025  0.325 0.525 0  0.325 0.525 0.025  0.35 0.525 0  0.35 0.525 0.025  0.375 0.525 0  0.375 0.525 0.025  0.4 0.525 0  0.4 0.525 0.025  0.425 0.525 0  0.425 0.525 0.025  0.1 0.55 0  0.1 0.55 0.025  0.125 0.55 0  0.125 0.55 0.025  0.15 0.55 0  0.15 0.55 0.025  0.175 0.55 0  0.175 0.55 0.025  0.2 0.55 0  0.2 0.55 0.025  0.225 0.55 0  0.225 0.55 0.025  0.25 0.55 0  0.25 0.55 0.025  0.275 0.55 0  0.275 0.55 0.025  0.3 0.55 0  0.3 0.55 0.025  0.325 0.55 0  0.325 0.55 0.025  0.35 0.55 0  0.35 0.55 0.025  0.375 0.55 0  0.375 0.55 0.025  0.4 0.55 0  0.4 0.55 0.025  0.425 0.55 0  0.425 0.55 0.025  0.125 0.575 0  0.125 0.575 0.025  0.1 0.575 0  0.1 0.575 0.025  0.15 0.575 0  0.15 0.575 0.025  0.175 0.575 0  0.175 0.575 0.025  0.2 0.575 0  0.2 0.575 0.025  0.225 0.575 0  0.225 0.575 0.025  0.25 0.575 0  0.25 0.575 0.025  0.275 0.575 0  0.275 0.575 0.025  0.3 0.575 0  0.3 0.575 0.025  0.325 0.575 0  0.325 0.575 0.025  0.35 0.575 0  0.35 0.575 0.025  0.375 0.575 0  0.375 0.575 0.025  0.4 0.575 0  0.4 0.575 0.025  0.425 0.575 0  0.425 0.575 0.025  0.45 0.575 0  0.45 0.575 0.025  0.125 0.6 0  0.125 0.6 0.025  0.15 0.6 0  0.15 0.6 0.025  0.175 0.6 0  0.175 0.6 0.025  0.2 0.6 0  0.2 0.6 0.025  0.225 0.6 0  0.225 0.6 0.025  0.25 0.6 0  0.25 0.6 0.025  0.275 0.6 0  0.275 0.6 0.025  0.3 0.6 0  0.3 0.6 0.025  0.325 0.6 0  0.325 0.6 0.025  0.35 0.6 0  0.35 0.6 0.025  0.375 0.6 0  0.375 0.6 0.025  0.4 0.6 0  0.4 0.6 0.025  0.425 0.6 0  0.425 0.6 0.025  0.45 0.6 0  0.45 0.6 0.025  0.475 0.6 0  0.475 0.6 0.025  0.15 0.625 0  0.15 0.625 0.025  0.125 0.625 0  0.125 0.625 0.025  0.175 0.625 0  0.175 0.625 0.025  0.2 0.625 0  0.2 0.625 0.025  0.225 0.625 0  0.225 0.625 0.025  0.25 0.625 0  0.25 0.625 0.025  0.275 0.625 0  0.275 0.625 0.025  0.3 0.625 0  0.3 0.625 0.025  0.325 0.625 0  0.325 0.625 0.025  0.35 0.625 0  0.35 0.625 0.025  0.375 0.625 0  0.375 0.625 0.025  0.4 0.625 0  0.4 0.625 0.025  0.425 0.625 0  0.425 0.625 0.025  0.45 0.625 0  0.45 0.625 0.025  0.475 0.625 0  0.475 0.625 0.025  0.5 0.625 0  0.5 0.625 0.025  0.15 0.65 0  0.15 0.65 0.025  0.125 0.65 0  0.175 0.65 0  0.175 0.65 0.025  0.2 0.65 0  0.2 0.65 0.025  0.225 0.65 0  0.225 0.65 0.025  0.25 0.65 0  0.25 0.65 0.025  0.275 0.65 0  0.275 0.65 0.025  0.3 0.65 0  0.3 0.65 0.025  0.325 0.65 0  0.325 0.65 0.025  0.35 0.65 0  0.35 0.65 0.025  0.375 0.65 0  0.375 0.65 0.025  0.4 0.65 0  0.4 0.65 0.025  0.425 0.65 0  0.425 0.65 0.025  0.45 0.65 0  0.45 0.65 0.025  0.475 0.65 0  0.475 0.65 0.025  0.5 0.65 0  0.5 0.65 0.025  0.15 0.675 0  0.15 0.675 0.025  0.125 0.675 0  0.175 0.675 0  0.175 0.675 0.025  0.2 0.675 0  0.2 0.675 0.025  0.225 0.675 0  0.225 0.675 0.025  0.25 0.675 0  0.25 0.675 0.025  0.275 0.675 0  0.275 0.675 0.025  0.3 0.675 0  0.3 0.675 0.025  0.325 0.675 0  0.325 0.675 0.025  0.35 0.675 0  0.35 0.675 0.025  0.375 0.675 0  0.375 0.675 0.025  0.4 0.675 0  0.4 0.675 0.025  0.425 0.675 0  0.425 0.675 0.025  0.45 0.675 0  0.45 0.675 0.025  0.475 0.675 0  0.475 0.675 0.025  0.5 0.675 0  0.5 0.675 0.025  0.15 0.7 0  0.15 0.7 0.025  0.175 0.7 0  0.175 0.7 0.025  0.2 0.7 0  0.2 0.7 0.025  0.225 0.7 0  0.225 0.7 0.025  0.25 0.7 0  0.25 0.7 0.025  0.275 0.7 0  0.275 0.7 0.025  0.3 0.7 0  0.3 0.7 0.025  0.325 0.7 0  0.325 0.7 0.025  0.35 0.7 0  0.35 0.7 0.025  0.375 0.7 0  0.375 0.7 0.025  0.4 0.7 0  0.4 0.7 0.025  0.425 0.7 0  0.425 0.7 0.025  0.45 0.7 0  0.45 0.7 0.025  0.475 0.7 0  0.475 0.7 0.025  0.5 0.7 0  0.5 0.7 0.025  0.525 0.675 0  0.525 0.7 0  0.525 0.7 0.025  0.55 0.7 0  0.55 0.7 0.025  0.175 0.725 0  0.175 0.725 0.025  0.15 0.725 0  0.15 0.725 0.025  0.2 0.725 0  0.2 0.725 0.025  0.225 0.725 0  0.225 0.725 0.025  0.25 0.725 0  0.25 0.725 0.025  0.275 0.725 0  0.275 0.725 0.025  0.3 0.725 0  0.3 0.725 0.025  0.325 0.725 0  0.325 0.725 0.025  0.35 0.725 0  0.35 0.725 0.025  0.375 0.725 0  0.375 0.725 0.025  0.4 0.725 0  0.4 0.725 0.025  0.425 0.725 0  0.425 0.725 0.025  0.45 0.725 0  0.45 0.725 0.025  0.475 0.725 0  0.475 0.725 0.025  0.5 0.725 0  0.5 0.725 0.025  0.525 0.725 0  0.525 0.725 0.025  0.55 0.725 0  0.55 0.725 0.025  0.575 0.725 0  0.575 0.725 0.025  0.175 0.75 0  0.175 0.75 0.025  0.15 0.75 0  0.2 0.75 0  0.2 0.75 0.025  0.225 0.75 0  0.225 0.75 0.025  0.25 0.75 0  0.25 0.75 0.025  0.275 0.75 0  0.275 0.75 0.025  0.3 0.75 0  0.3 0.75 0.025  0.325 0.75 0  0.325 0.75 0.025  0.35 0.75 0  0.35 0.75 0.025  0.375 0.75 0  0.375 0.75 0.025  0.4 0.75 0  0.4 0.75 0.025  0.425 0.75 0  0.425 0.75 0.025  0.45 0.75 0  0.45 0.75 0.025  0.475 0.75 0  0.475 0.75 0.025  0.5 0.75 0  0.5 0.75 0.025  0.525 0.75 0  0.525 0.75 0.025  0.55 0.75 0  0.55 0.75 0.025  0.575 0.75 0  0.575 0.75 0.025  0.6 0.75 0.025  0.175 0.775 0  0.175 0.775 0.025  0.15 0.775 0  0.2 0.775 0  0.2 0.775 0.025  0.225 0.775 0  0.225 0.775 0.025  0.25 0.775 0  0.25 0.775 0.025  0.275 0.775 0  0.275 0.775 0.025  0.3 0.775 0  0.3 0.775 0.025  0.325 0.775 0  0.325 0.775 0.025  0.35 0.775 0  0.35 0.775 0.025  0.375 0.775 0  0.375 0.775 0.025  0.4 0.775 0  0.4 0.775 0.025  0.425 0.775 0  0.425 0.775 0.025  0.45 0.775 0  0.45 0.775 0.025  0.475 0.775 0  0.475 0.775 0.025  0.5 0.775 0  0.5 0.775 0.025  0.525 0.775 0  0.525 0.775 0.025  0.55 0.775 0  0.55 0.775 0.025  0.575 0.775 0  0.575 0.775 0.025  0.6 0.775 0.025  0.6 0.775 0  0.175 0.8 0  0.175 0.8 0.025  0.15 0.8 0  0.2 0.8 0  0.2 0.8 0.025  0.225 0.8 0  0.225 0.8 0.025  0.25 0.8 0  0.25 0.8 0.025  0.275 0.8 0  0.275 0.8 0.025  0.3 0.8 0  0.3 0.8 0.025  0.325 0.8 0  0.325 0.8 0.025  0.35 0.8 0  0.35 0.8 0.025  0.375 0.8 0  0.375 0.8 0.025  0.4 0.8 0  0.4 0.8 0.025  0.425 0.8 0  0.425 0.8 0.025  0.45 0.8 0  0.45 0.8 0.025  0.475 0.8 0  0.475 0.8 0.025  0.5 0.8 0  0.5 0.8 0.025  0.525 0.8 0  0.525 0.8 0.025  0.55 0.8 0  0.55 0.8 0.025  0.575 0.8 0  0.575 0.8 0.025  0.6 0.8 0  0.6 0.8 0.025  0.625 0.8 0  0.625 0.8 0.025  0.175 0.825 0  0.175 0.825 0.025  0.15 0.825 0  0.2 0.825 0  0.2 0.825 0.025  0.225 0.825 0  0.225 0.825 0.025  0.25 0.825 0  0.25 0.825 0.025  0.275 0.825 0  0.275 0.825 0.025  0.3 0.825 0  0.3 0.825 0.025  0.325 0.825 0  0.325 0.825 0.025  0.35 0.825 0  0.35 0.825 0.025  0.375 0.825 0  0.375 0.825 0.025  0.4 0.825 0  0.4 0.825 0.025  0.425 0.825 0  0.425 0.825 0.025  0.45 0.825 0  0.45 0.825 0.025  0.475 0.825 0  0.475 0.825 0.025  0.5 0.825 0  0.5 0.825 0.025  0.525 0.825 0  0.525 0.825 0.025  0.55 0.825 0  0.55 0.825 0.025  0.575 0.825 0  0.575 0.825 0.025  0.6 0.825 0  0.6 0.825 0.025  0.625 0.825 0  0.625 0.825 0.025  0.65 0.825 0  0.65 0.825 0.025  0.175 0.85 0  0.175 0.85 0.025  0.2 0.85 0  0.2 0.85 0.025  0.225 0.85 0  0.225 0.85 0.025  0.25 0.85 0  0.25 0.85 0.025  0.275 0.85 0  0.275 0.85 0.025  0.3 0.85 0  0.3 0.85 0.025  0.325 0.85 0  0.325 0.85 0.025  0.35 0.85 0  0.35 0.85 0.025  0.375 0.85 0  0.375 0.85 
[...]
<PointData  Scalars="f_153"> 
<DataArray  type="Float64"  Name="f_153"  format="ascii">1.0032225440710306e+02  1.0033318260052414e+02  1.0022680994664780e+02  1.0038482357937320e+02  1.0023355728058171e+02  1.0039609457799928e+02  1.0034386693290514e+02  1.0013090787189699e+02  1.0030582451486167e+02  1.0024014278631627e+02  1.0040650140628371e+02  1.0035403513838592e+02  1.0013419209339180e+02  1.0031338592629798e+02  1.0003678008401904e+02  1.0022707574220654e+02  1.0047456407561508e+02  1.0036346078526276e+02  1.0051779803090339e+02  1.0050556863252447e+02  1.0048730817079498e+02  1.0024637136237824e+02  1.0041593801789068e+02  1.0013744374612048e+02  1.0032023008755159e+02  1.0003733237297489e+02  1.0023158077001713e+02  9.9946267467061020e+01  1.0015043992997987e+02  1.0037195876460854e+02  1.0052862439680803e+02  1.0049867809226485e+02  1.0025207834436355e+02  1.0042430927787363e+02  1.0014052934609020e+02  1.0032630023977384e+02  1.0003802085800527e+02  1.0023555480621341e+02  9.9944811689538014e+01  1.0015254885910684e+02  9.9860893527951248e+01  1.0007745751777236e+02  1.0037938028661615e+02  1.0053794664718156e+02  1.0050852326503131e+02  1.0025712787524134e+02  1.0043153368593654e+02  1.0014333521309592e+02  1.0033154291010837e+02  1.0003876069187186e+02  1.0023897820064067e+02  9.9943690931770263e+01  1.0015434109103363e+02  9.9858129144440852e+01  1.0007781680672413e+02  9.9781912814526123e+01  1.0000939610941730e+02  1.0038560807716838e+02  1.0054568448779413e+02  1.0051672732346755e+02  1.0065847659365069e+02  1.0026141054954580e+02  1.0043754405853309e+02  1.0014576745416821e+02  1.0033591110719603e+02  1.0003947935344996e+02  1.0024182939228250e+02  9.9942857907267609e+01  1.0015582373160809e+02  9.9855918122254138e+01  1.0007808996724914e+02  9.9778499462968355e+01  1.0000862004845676e+02  9.9714789038120941e+01  9.9710344119164475e+01  9.9947283968542749e+01  9.9651148726873402e+01  9.9893885057479309e+01  1.0065174360644104e+02  1.0052320241648516e+02  1.0066593018668210e+02  1.0065969337783200e+02  1.0039055212392248e+02  1.0055177608767917e+02  1.0026484090942887e+02  1.0044228716322817e+02  1.0014775123696002e+02  1.0033936587485752e+02  1.0004011750431134e+02  1.0024408812595311e+02  9.9942272195064987e+01  1.0015699819405548e+02  9.9854240924961090e+01  1.0007830160531937e+02  9.9775866064275164e+01  1.0000799257127014e+02  9.9706887182898285e+01  9.9945938038813097e+01  9.9646994632837647e+01  9.9891934792848843e+01  9.9595865805507216e+01  9.9845748618857868e+01  1.0052788470612796e+02  1.0067129995085180e+02  1.0066541901704305e+02  1.0039414613473500e+02  1.0055617588444041e+02  1.0026735513355661e+02  1.0044572290953035e+02  1.0014922979090478e+02  1.0034187690583811e+02  1.0004062921992001e+02  1.0024573736440692e+02  9.9941901505793638e+01  1.0015786317804432e+02  9.9853080628153691e+01  1.0007846756951047e+02  9.9774011794365023e+01  1.0000754711097892e+02  9.9704433381667528e+01  9.9944967229579802e+01  9.9644031819400340e+01  9.9890520575768278e+01  9.9592478939339742e+01  9.9843967250705944e+01  9.9549457584712727e+01  9.9805062725879310e+01  1.0053073097707650e+02  1.0067455468432831e+02  1.0066888250145004e+02  1.0039634477441405e+02  1.0055885274434101e+02  1.0026890911479562e+02  1.0044782346071162e+02  1.0015016341700564e+02  1.0034342266785721e+02  1.0004098190770272e+02  1.0024676437656643e+02  9.9941722397344876e+01  1.0015841658442980e+02  9.9852424270766207e+01  1.0007859751002047e+02  9.9772934814595885e+01  1.0000730550480816e+02  9.9702992029148589e+01  9.9944405407159010e+01  9.9642280275507829e+01  9.9889687656366604e+01  9.9590468276139816e+01  9.9842909154128435e+01  9.9547235260587115e+01  9.9803821707333640e+01  9.9512288990237266e+01  9.9772191862738111e+01  1.0053171628092677e+02  1.0067567643891557e+02  1.0067006201236126e+02  1.0039712169896922e+02  1.0055978859612016e+02  1.0026947703577282e+02  1.0044857248310491e+02  1.0015052868121745e+02  1.0034399032730290e+02  1.0004115611983688e+02  1.0024716131937454e+02  9.9941720648525731e+01  1.0015865668042379e+02  9.9852263691883877e+01  1.0007869651576971e+02  9.9772633456428153e+01  1.0000727997739845e+02  9.9702568018009771e+01  9.9944271890629636e+01  9.9641751217089578e+01  9.9889462110582471e+01  9.9589850872912209e+01  9.9842606591780367e+01  9.9546545107695792e+01  9.9803456005042108e+01  9.9511540516206594e+01  9.9771775712983271e+01  1.0053083255721751e+02  1.0067465942703707e+02  1.0066895046271067e+02  1.0039646838714296e+02  1.0055897759908463e+02  1.0026905050011385e+02  1.0044796465676804e+02  1.0015031789484060e+02  1.0034357564244236e+02  1.0004114539088189e+02  1.0024692551174890e+02  9.9941891426933338e+01  1.0015858271809988e+02  9.9852595977784532e+01  1.0007876601855078e+02  9.9773106884246658e+01  1.0000747426088969e+02  9.9703162633286396e+01  9.9944572718169283e+01  9.9642447991594139e+01  9.9889852190542470e+01  9.9590631999465259e+01  9.9843069859480892e+01  9.9547394115271146e+01  9.9803977729224755e+01  9.9512442242914574e+01  9.9772342463583527e+01  9.9485525116234768e+01  9.9747959172117604e+01  1.0052808819573552e+02  1.0067150967383475e+02  1.0039439376458472e+02  1.0055642587353060e+02  1.0026763824661857e+02  1.0044600551043212e+02  1.0014953893578712e+02  1.0034218291717114e+02  1.0004095617073386e+02  1.0024605950862959e+02  9.9942239327193576e+01  1.0015819511923955e+02  9.9853423590990730e+01  1.0007880407138140e+02  9.9774355296193463e+01  1.0000788394554402e+02  9.9704773804643892e+01  9.9945301047893935e+01  9.9644366362671860e+01  9.9890848755524644e+01  9.9592805439541607e+01  9.9844287730740632e+01  9.9549774335479725e+01  9.9805373839281387e+01  9.9514984783148080e+01  9.9773877572072422e+01  9.9488189004049943e+01  9.9749597512581062e+01  1.0039092461858827e+02  1.0055215180151733e+02  1.0052350852913209e+02  1.0066624541203717e+02  1.0026526645389933e+02  1.0044271159952301e+02  1.0014821542645518e+02  1.0033982504308081e+02  1.0004060787428399e+02  1.0024457100861875e+02  9.9942778303226774e+01  1.0015749526204509e+02  9.9854754204096210e+01  1.0007880503536880e+02  9.9776379682337577e+01  1.0000849609115079e+02  9.9707395811923305e+01  9.9946436717973924e+01  9.9647494183686206e+01  9.9892424802031314e+01  9.9596353148873760e+01  9.9846226973732740e+01  9.9553662537931970e+01  9.9807605659608413e+01  9.9519140560860038e+01  9.9776337822120894e+01  9.9492545327444375e+01  9.9752227906817964e+01  9.9473682623301968e+01  9.9735116701666840e+01  1.0038610680583292e+02  1.0054618688984552e+02  1.0026197962619410e+02  1.0043811100666566e+02  1.0014638724948317e+02  1.0033652359935351e+02  1.0004013302317770e+02  1.0024247255901481e+02  9.9943531468068613e+01  1.0015648483190560e+02  9.9856600213568044e+01  1.0007875863928105e+02  9.9779181119672117e+01  1.0000928806814304e+02  9.9711018429190744e+01  9.9947944941051915e+01  9.9651810451587949e+01  9.9894534074772068e+01  9.9601244267857581e+01  9.9848830928999519e+01  9.9559019216362586e+01  9.9810607459448647e+01  9.9524862833431825e+01  9.9779649926467513e+01  9.9498541648465334e+01  9.9755771140673659e+01  9.9479868429961499e+01  9.9738818811244386e+01  9.9468706950118630e+01  9.9728681117755301e+01  1.0025784203075230e+02  1.0043224409929350e+02  1.0038000725768119e+02  1.0053857716642831e+02  1.0014411134416947e+02  1.0033230891649596e+02  1.0003957740563271e+02  1.0023978094724754e+02  9.9944530682153641e+01  1.0015516462095468e+02  9.9858977859676926e+01  1.0007864830306933e+02  9.9782759543034800e+01  1.0001022553403998e+02  9.9715625463817915e+01  9.9949774057525715e+01  9.9657283716675877e+01  9.9897108703390060e+01  9.9607433482863016e+01  9.9852017112325058e+01  9.9565786958023736e+01  9.9814284078525105e+01  9.9532084102063408e+01  9.9783708207045152e+01  9.9506102550025446e+01  9.9760113307555997e+01  9.9487664222305781e+01  9.9743356132558517e+01  9.9476639650411187e+01  9.9733331529960367e+01  9.9472950682562256e+01  9.9729975712918048e+01  1.0025293962521192e+02  1.0042516441699622e+02  1.0037271678188523e+02  1.0014146267540693e+02  1.0032721992797921e+02  1.0003900012000500e+02  1.0023651607688777e+02  9.9945815790679077e+01  1.0015353257108883e+02  9.9861905826016397e+01  1.0007844853517139e+02  9.9787111890305809e+01  1.0001125938269828e+02  9.9721192620569695e+01  9.9951852219394567e+01  9.9663869811722179e+01  9.9900055772451751e+01  9.9614858731160638e+01  9.9855673783820606e+01  9.9573888198287833e+01  9.9818507568670341e+01  9.9540713955375324e+01  9.9788371346185642e+01  9.9515127578355703e+01  9.9765102675522300e+01  9.9496962383708208e+01  9.9748569523891092e+01  9.9486097278601363e+01  9.9738674968510111e+01  9.9482459164607647e+01  9.9735360181867861e+01  1.0024738235986406e+02  1.0041693946672541e+02  1.0036435363828514e+02  1.0013853519392474e+02  1.0032130351940597e+02  1.0003847328917682e+02  1.0023269900682209e+02  9.9947433298369347e+01  1.0015158074330235e+02  9.9865403133645927e+01  1.0007812111738723e+02  9.9792229480128796e+01  1.0001232142770988e+02  9.9727684599057483e+01  9.9954082820302801e+01  9.9671508858955150e+01  9.9903252694104239e+01  9.9623438253922998e+01  9.9859655401325227e+01  9.9583222403631552e+01  9.9823112810375292e+01  9.9550636420088935e+01  9.9793458200147612e+01  9.9525488760960485e+01  9.9770545691936803e+01  9.9507626415112853e+01  9.9754256637450410e+01  9.9496938279000091e+01  9.9744503877360344e+01  9.9493357266892900e+01  9.9741234454022290e+01  1.0024130664905253e+02  1.0040765105290509e+02  1.0013544249830873e+02  1.0031461291613842e+02  1.0003808112764111e+02  1.0022834866870782e+02  9.9949434182516683e+01  1.0014929075290561e+02  9.9869486082748452e+01  1.0007760967567894e+02  9.9798094444377824e+01  1.0001331849452103e+02  9.9735051321179569e+01  9.9956338426761505e+01  9.9680121521685493e+01  9.9906541213463726e+01  9.9633067024525914e+01  9.9863776852549492e+01  9.9593662759478576e+01  9.9827892050649510e+01  9.9561706932808079e+01  9.9798742660697755e+01  9.9537027840969373e+01  9.9776202139595384e+01  9.9519488377084713e+01  9.9760167306351079e+01  9.9508988980165825e+01  9.9750562209018014e+01  9.9505469491062257e+01  9.9747340607105926e+01  9.9496861486545384e+01  9.9508910193451385e+01  9.9750487376574313e+01  9.9519332189546034e+01  9.9760019003721780e+01  1.0013231774981726e+02  1.0030720439943310e+02  1.0023487765579135e+02  1.0039739452649258e+02  1.0003791790370869e+02  1.0022347655029729e+02  9.9951870442077976e+01  1.0014662702372871e+02  9.9874163933014628e+01  1.0007683209429629e+02  9.9804675014425214e+01  1.0001412449660656e+02  9.9743223192318410e+01  9.9958452899082587e+01  9.9689604496202492e+01  9.9909719833677173e+01  9.9643612622449680e+01  9.9867806332266568e+01  9.9605052490057574e+01  9.9832588288721553e+01  9.9573749101287888e+01  9.9803947534728550e+01  9.9549553424647456e+01  9.9781779443754630e+01  9.9532346332802405e+01  9.9765998176688427e+01  9.9522041219778302e+01  9.9756540256209078e+01  9.9518585673641311e+01  9.9753366891940530e+01  9.9521962425544586e+01  9.9756465308328686e+01  9.9532189692660751e+01  9.9765849210805470e+01  9.9549320956329183e+01  9.9781558437026121e+01  1.0012931216157399e+02  1.0029913126618086e+02  1.0022829079040018e+02  1.0003808416213573e+02  1.0021807831713981e+02  9.9954789870754325e+01  1.0014352697372381e+02  9.9879432967727197e+01  1.0007567006004328e+02  9.9811919464639203e+01  1.0001456995574823e+02  9.9752105339894200e+01  9.9960211313834790e+01  9.9699825300516636e+01  9.9912534393657339e+01  9.9654910694309891e+01  9.9871456688035607e+01  9.9617201011649641e+01  9.9836887396225706e+01  9.9586551496285040e+01  9.9808737370217045e+01  9.9562838307810324e+01  9.9786926084349673e+01  9.9545962072356645e+01  9.9771386554019628e+01  9.9535850310141754e+01  9.9762068761177758e+01  9.9532459025408116e+01  9.9758941922811687e+01  9.9535773622447678e+01  9.9761995800337644e+01  9.9545809233746681e+01  9.9771241155862640e+01  9.9562610491419051e+01  9.9786709392652824e+01  9.9808451356413840e+01  1.0012659106553116e+02  1.0029043339082216e+02  1.0022177143905731e+02  1.0003868036351386e+02  1.0021212091164564e+02  9.9958228444227998e+01  1.0013988693480817e+02  9.9885268579765608e+01  1.0007395481400590e+02  9.9819748572462785e+01  1.0001442828562472e+02  9.9761570864491304e+01  9.9961337197451314e+01  9.9710616523042788e+01  9.9914666445830733e+01  9.9666760250709075e+01  9.9874374973255939e+01  9.9629880220899395e+01  9.9840408767037715e+01  9.9599864805454288e+01  9.9812710055022706e+01  9.9576617327646616e+01  9.9791223955389071e+01  9.9560059471182385e+01  9.9775903312805781e+01  9.9550133699468887e+01  9.9766712153497068e+01  9.9546804885872746e+01  9.9763628016954840e+01  9.9550061267208719e+01  9.9766643315164600e+01  9.9559914779055958e+01  9.9775765800159249e+01  9.9576400795050318e+01  9.9791018169064515e+01  9.9812436790243851e+01  9.9599577261213810e+01  1.0012432616235880e+02  1.0028111993588895e+02  1.0021557136715799e+02  1.0003979689833420e+02  1.0020552308232102e+02  9.9962199682940550e+01  1.0013554221336285e+02  9.9891615105345892e+01  1.0007144792141827e+02  9.9828046606194519e+01  1.0001339796283396e+02  9.9771453314481121e+01  9.9961476413145576e+01  9.9721769867971261e+01  9.9915718912191153e+01  9.9678919205229960e+01  9.9876129760906068e+01  9.9642821355758130e+01  9.9842694083549830e+01  9.9613399794931482e+01  9.9815386784039546e+01  9.9590586181936558e+01  9.9794179263165461e+01  9.9574323917373988e+01  9.9779044452681447e+01  9.9564570758026790e+01  9.9769960494129833e+01  9.9561300620524236e+01  9.9766913259259525e+01  9.9564504647040152e+01  9.9769897828979666e+01  9.9574191571496996e+01  9.9778918994269716e+01  9.9590387401545456e+01  9.9793990802318646e+01  9.9613134411974258e+01  9.9815135135249463e+01  9.9642489424832789e+01  9.9842379270915757e+01  1.0012268209064281e+02  1.0027114156827760e+02  1.0020995940108753e+02  1.0004149930176602e+02  1.0019812648700434e+02  9.9966680453606685e+01  1.0013023915154596e+02  9.9898373360482410e+01  1.0006781546710442e+02  9.9836651126035179e+01  1.0001107935794965e+02  9.9781538862631947e+01  9.9960176685917119e+01  9.9733030567520700e+01  9.9915198104592989e+01  9.9691100751763514e+01  9.9876195333229731e+01  9.9655713013492004e+01  9.9843193303297994e+01  9.9626826634069729e+01  9.9816199468607508e+01  9.9604401738410232e+01  9.9795211003214092e+01  9.9588403302808743e+01  9.9780220312507481e+01  9.9578804165943779e+01  9.9771219117928140e+01  9.9575587131960631e+01  9.9768201278612622e+01  9.9578746217571720e+01  9.9771164451076203e+01  9.9588287071615923e+01  9.9780110643216958e+01  9.9604226578473231e+01  9.9795045683007999e+01  9.9626591641915965e+01  9.9815977589311601e+01  9.9655417131103945e+01  9.9842913798158690e+01  9.9690742951923283e+01  9.9875857158122116e+01  1.0012179522616552e+02  1.0026034686477409e+02  1.0004380774189400e+02  1.0018965339689991e+02  9.9971593169754996e+01  1.0012359623146445e+02  9.9905386409192616e+01  1.0006259336597203e+02  9.9845342429994830e+01  1.0000694426180401e+02  9.9791559131943544e+01  9.9956860936868765e+01  9.9744093109367029e+01  9.9912490289259296e+01  9.9702971469425222e+01  9.9873930869674894e+01  9.9668201132830973e+01  9.9841245904501292e+01  9.9639776307295207e+01  9.9814473541207079e+01  9.9617684487052628e+01  9.9793634895427985e+01  9.9601911178012500e+01  9.9778740266855635e+01  9.9592443471374992e+01  9.9769793766622655e+01  9.9589272545270418e+01  9.9766796518896996e+01  9.9592395146042847e+01  9.9769748542111330e+01  9.9601814078975920e+01  9.9778649369919492e+01  9.9617537719554917e+01  9.9793497432731655e+01  9.9639578538866587e+01  9.9814288183568294e+01  9.9667950619459276e+01  9.9841010914144277e+01  9.9702666120550731e+01  9.9873644165707702e+01  1.0004667038545669e+02  1.0017964495339639e+02  1.0012174251499761e+02  9.9976785096289305e+01  1.0011504942660264e+02  9.9912424806855981e+01  1.0005513960441334e+02  9.9853834051359101e+01  1.0000029411259771e+02  9.9801186026983842e+01  9.9950790385636736e+01  9.9754599484794795e+01  9.9906828597530350e+01  9.9714152178749956e+01  9.9868550244848976e+01  9.9679891788793796e+01  9.9836052819570554e+01  9.9651844811370708e+01  9.9809401428561657e+01  9.9630023715478075e+01  9.9788637928517034e+01  9.9614432566698540e+01  9.9773787969720942e+01  9.9605071264230432e+01  9.9764866225468552e+01  9.9601938494892863e+01  9.9761879999893907e+01  9.9605033475337478e+01  9.9764831341838843e+01  9.9614356523994033e+01  9.9773717737727551e+01  9.9629908476928193e+01  9.9788531407611245e+01  9.9651688935099145e+01  9.9809257181867750e+01  9.9679693303842683e+01  9.9835868888142457e+01  9.9713908558549335e+01  9.9868324125792626e+01  9.9754307641767582e+01  9.9906557244435191e+01  1.0004993300706819e+02  1.0016737024010835e+02  9.9982007848915075e+01  1.0010377312456562e+02  9.9919174412497910e+01  1.0004456491480674e+02  9.9861767051448567e+01  9.9990198168152801e+01  9.9810030845208459e+01  9.9941008246614615e+01  9.9764141768228640e+01  9.9897240675736057e+01  9.9724222957534593e+01  9.9859072448117161e+01  9.9690357885086996e+01  9.9826628760260533e+01  9.9662600977664923e+01  9.9799996163268801e+01  9.9640986071495846e+01  9.9779232817302685e+01  9.9625532989102837e+01  9.9764376340451918e+01  9.9616252452214852e+01  9.9755449600672051e+01  9.9613149484940593e+01  9.9752464693435797e+01  9.9616225411912424e+01  9.9755425264761115e+01  9.9625478511716508e+01  9.9764327270242603e+01  9.9640903345314157e+01  9.9779158199331462e+01  9.9662488739199873e+01  9.9799894735225152e+01  9.9690214362705689e+01  9.9826498759741241e+01  9.9724045795485338e+01  9.9858911544292312e+01  9.9763927933491885e+01  9.9897045887227478e+01  9.9809776527867612e+01  9.9940775856307653e+01  9.9986900755169899e+01  1.0008855372539891e+02  1.0005330798238154e+02  9.9925230091418598e+01  1.0002961839948151e+02  9.9868710798852135e+01  9.9975387290113673e+01  9.9817649717967271e+01  9.9926238872138796e+01  9.9772270530276145e+01  9.9882451254247314e+01  9.9732733387758032e+01  9.9844226287007018e+01  9.9699150492107549e+01  9.9811708214190773e+01  9.9671598431962721e+01  9.9784998138538541e+01  9.9650127859666114e+01  9.9764165184287108e+01  9.9634770930953735e+01  9.9749254972126394e+01  9.9625546813331809e+01  9.9740295835472963e+01  9.9622465478092010e+01  9.9737303071669714e+01  9.9625529918505435e+01  9.9740281418634837e+01  9.9634736875142934e+01  9.9749225864076337e+01  9.9650076094315281e+01  9.9764120821425195e+01  9.9671528092219120e+01  9.9784937637172447e+01  9.9699060342281584e+01  9.9811630321229842e+01  9.9732621741606152e+01  9.9844129308525368e+01  9.9772135139833068e+01  9.9882332957120184e+01  9.9817487623180540e+01  9.9926096353181805e+01  9.9868518132476666e+01  9.9975216810396716e+01  9.9990995157828820e+01  1.0006755641510861e+02  1.0005636517022876e+02  9.9930107714287956e+01  1.0000846531911401e+02  9.9874178950308121e+01  9.9954037921288375e+01  9.9823561320946880e+01  9.9904674975937709e+01  9.9778512994358962e+01  9.9860670889799465e+01  9.9739220485524513e+01  9.9822239679255645e+01  9.9705816249700220e+01  9.9789534780145502e+01  9.9678392389956997e+01  9.9762664258321038e+01  9.9657011275982967e+01  9.9741702461149060e+01  9.9641713632503254e+01  9.9726698816989511e+01  9.9632524487674019e+01  9.9717684265637715e+01  9.9629457249376429e+01  9.9714675645478181e+01  9.9632516083898210e+01  9.9717678246540416e+01  9.9641696695132069e+01  9.9726686646417903e+01  9.9656985535705374e+01  9.9741683866334725e+01  9.9678357417444062e+01  9.9762638809178455e+01  9.9705771421698969e+01  9.9789501861620252e+01  9.9739164933262217e+01  9.9822198449866150e+01  9.9778445527397793e+01  9.9860620221504576e+01  9.9823480315769899e+01  9.9904613368087340e+01  9.9874082188868471e+01  9.9953963378679987e+01  9.9993673750213162e+01  1.0003779861999317e+02  9.9933207636511497e+01  9.9978171347410040e+01  9.987759359832750