<?xml version="1.0"?>
<VTKFile type="UnstructuredGrid"  version="0.1"  >
<UnstructuredGrid>
<Piece  NumberOfPoints="7611" NumberOfCells="38339">
<Points>
<DataArray  type="Float64"  NumberOfComponents="3"  format="ascii">0 0.2 0.25  0 0.225 0.25  0 0.225 0.275  0.025 0.225 0.275  0.025 0.25 0.275  0 0.25 0.275  0.025 0.25 0.3  0 0.25 0.3  0.05 0.25 0.3  0.025 0.275 0.3  0 0.275 0.3  0 0.275 0.275  0.05 0.275 0.3  0.025 0.3 0.3  0 0.3 0.3  0.025 0.275 0.325  0.025 0.25 0.325  0 0.25 0.325  0 0.275 0.325  0.05 0.275 0.325  0.05 0.25 0.325  0.075 0.275 0.325  0.025 0.3 0.325  0 0.3 0.325  0.05 0.3 0.325  0.075 0.3 0.325  0.025 0.325 0.325  0 0.325 0.325  0.05 0.325 0.325  0.025 0.275 0.35  0.025 0.25 0.35  0 0.25 0.35  0 0.275 0.35  0.05 0.275 0.35  0.05 0.25 0.35  0.075 0.275 0.35  0.15 0.25 0.325  0.15 0.25 0.35  0.175 0.25 0.35  0.175 0.275 0.35  0.15 0.275 0.35  0.025 0.3 0.35  0 0.3 0.35  0.05 0.3 0.35  0.075 0.3 0.35  0.1 0.275 0.325  0.1 0.3 0.325  0.1 0.3 0.35  0.1 0.275 0.35  0.125 0.275 0.325  0.125 0.3 0.325  0.125 0.3 0.35  0.125 0.275 0.35  0.15 0.3 0.35  0.025 0.325 0.35  0 0.325 0.35  0.05 0.325 0.35  0.075 0.325 0.325  0.075 0.325 0.35  0.1 0.325 0.35  0.125 0.325 0.35  0.15 0.325 0.35  0.025 0.35 0.325  0.025 0.35 0.35  0 0.35 0.325  0 0.35 0.35  0.05 0.35 0.325  0.05 0.35 0.35  0.075 0.35 0.35  0.1 0.35 0.35  0.025 0.375 0.35  0 0.375 0.35  0 0.375 0.325  0.05 0.375 0.35  0.075 0.375 0.35  0.025 0.4 0.35  0 0.4 0.35  0 0.4 0.325  0.025 0.425 0.35  0 0.425 0.35  0 0.425 0.325  0.025 0.45 0.35  0 0.45 0.35  0.025 0.275 0.375  0.025 0.25 0.375  0 0.25 0.375  0 0.275 0.375  0.05 0.275 0.375  0.075 0.275 0.375  0.175 0.275 0.375  0.15 0.275 0.375  0.2 0.275 0.35  0.2 0.275 0.375  0.275 0.25 0.35  0.3 0.25 0.35  0.3 0.25 0.375  0.3 0.275 0.375  0.275 0.25 0.375  0.275 0.275 0.375  0.275 0.275 0.35  0.325 0.25 0.375  0.325 0.275 0.375  0.025 0.3 0.375  0 0.3 0.375  0.05 0.3 0.375  0.075 0.3 0.375  0.1 0.3 0.375  0.1 0.275 0.375  0.125 0.3 0.375  0.125 0.275 0.375  0.15 0.3 0.375  0.175 0.3 0.35  0.175 0.3 0.375  0.2 0.3 0.35  0.2 0.3 0.375  0.225 0.275 0.35  0.225 0.3 0.35  0.225 0.3 0.375  0.225 0.275 0.375  0.25 0.275 0.35  0.25 0.3 0.35  0.25 0.3 0.375  0.25 0.275 0.375  0.275 0.3 0.35  0.275 0.3 0.375  0.3 0.3 0.375  0.025 0.325 0.375  0 0.325 0.375  0.05 0.325 0.375  0.075 0.325 0.375  0.1 0.325 0.375  0.125 0.325 0.375  0.15 0.325 0.375  0.175 0.325 0.375  0.2 0.325 0.375  0.225 0.325 0.375  0.25 0.325 0.375  0.275 0.325 0.375  0.3 0.325 0.375  0.025 0.35 0.375  0 0.35 0.375  0.05 0.35 0.375  0.075 0.35 0.375  0.1 0.35 0.375  0.125 0.35 0.35  0.125 0.35 0.375  0.15 0.35 0.35  0.15 0.35 0.375  0.175 0.35 0.375  0.025 0.375 0.375  0 0.375 0.375  0.05 0.375 0.375  0.075 0.375 0.375  0.1 0.375 0.35  0.1 0.375 0.375  0.125 0.375 0.375  0.15 0.375 0.375  0.175 0.375 0.375  0.025 0.4 0.375  0 0.4 0.375  0.05 0.4 0.35  0.05 0.4 0.375  0.075 0.4 0.35  0.075 0.4 0.375  0.1 0.4 0.375  0.125 0.4 0.375  0.025 0.425 0.375  0 0.425 0.375  0.05 0.425 0.375  0.075 0.425 0.375  0.1 0.425 0.375  0.025 0.45 0.375  0 0.45 0.375  0.05 0.45 0.375  0.025 0.475 0.375  0.05 0.475 0.375  0.025 0.275 0.4  0 0.275 0.4  0.05 0.275 0.4  0.25 0.25 0.375  0.275 0.275 0.4  0.275 0.25 0.4  0.25 0.25 0.4  0.25 0.275 0.4  0.3 0.275 0.4  0.3 0.25 0.4  0.325 0.275 0.4  0.325 0.25 0.4  0.35 0.275 0.4  0.025 0.3 0.4  0 0.3 0.4  0.05 0.3 0.4  0.075 0.3 0.4  0.075 0.275 0.4  0.1 0.3 0.4  0.1 0.275 0.4  0.125 0.3 0.4  0.125 0.275 0.4  0.15 0.3 0.4  0.15 0.275 0.4  0.175 0.3 0.4  0.175 0.275 0.4  0.2 0.3 0.4  0.2 0.275 0.4  0.225 0.3 0.4  0.225 0.275 0.4  0.25 0.3 0.4  0.275 0.3 0.4  0.3 0.3 0.4  0.325 0.3 0.4  0.35 0.3 0.4  0.025 0.325 0.4  0 0.325 0.4  0.05 0.325 0.4  0.075 0.325 0.4  0.1 0.325 0.4  0.125 0.325 0.4  0.15 0.325 0.4  0.175 0.325 0.4  0.2 0.325 0.4  0.225 0.325 0.4  0.25 0.325 0.4  0.275 0.325 0.4  0.3 0.325 0.4  0.325 0.325 0.4  0.025 0.35 0.4  0 0.35 0.4  0.05 0.35 0.4  0.075 0.35 0.4  0.1 0.35 0.4  0.125 0.35 0.4  0.15 0.35 0.4  0.175 0.35 0.4  0.2 0.35 0.375  0.2 0.35 0.4  0.225 0.35 0.4  0.25 0.35 0.4  0.275 0.35 0.4  0.3 0.35 0.4  0.325 0.35 0.4  0.025 0.375 0.4  0 0.375 0.4  0.05 0.375 0.4  0.075 0.375 0.4  0.1 0.375 0.4  0.125 0.375 0.4  0.15 0.375 0.4  0.175 0.375 0.4  0.2 0.375 0.4  0.225 0.375 0.4  0.025 0.4 0.4  0 0.4 0.4  0.05 0.4 0.4  0.075 0.4 0.4  0.1 0.4 0.4  0.125 0.4 0.4  0.15 0.4 0.375  0.15 0.4 0.4  0.175 0.4 0.4  0.2 0.4 0.4  0.025 0.425 0.4  0 0.425 0.4  0.05 0.425 0.4  0.075 0.425 0.4  0.1 0.425 0.4  0.125 0.425 0.4  0.15 0.425 0.4  0.175 0.425 0.4  0.025 0.45 0.4  0 0.45 0.4  0.05 0.45 0.4  0.075 0.45 0.375  0.075 0.45 0.4  0.1 0.45 0.4  0.125 0.45 0.4  0.025 0.475 0.4  0.05 0.475 0.4  0.075 0.475 0.375  0.075 0.475 0.4  0.1 0.475 0.4  0.075 0.5 0.4  0.1 0.5 0.4  0.275 0.275 0.425  0.275 0.25 0.425  0.3 0.275 0.425  0.3 0.25 0.425  0.325 0.275 0.425  0.325 0.25 0.425  0.35 0.275 0.425  0.025 0.3 0.425  0 0.3 0.425  0.05 0.3 0.425  0.075 0.3 0.425  0.075 0.275 0.425  0.1 0.3 0.425  0.1 0.275 0.425  0.125 0.3 0.425  0.125 0.275 0.425  0.15 0.3 0.425  0.15 0.275 0.425  0.175 0.3 0.425  0.175 0.275 0.425  0.2 0.3 0.425  0.2 0.275 0.425  0.225 0.3 0.425  0.225 0.275 0.425  0.25 0.3 0.425  0.25 0.275 0.425  0.275 0.3 0.425  0.3 0.3 0.425  0.325 0.3 0.425  0.35 0.3 0.425  0.375 0.3 0.425  0.025 0.325 0.425  0 0.325 0.425  0.05 0.325 0.425  0.075 0.325 0.425  0.1 0.325 0.425  0.125 0.325 0.425  0.15 0.325 0.425  0.175 0.325 0.425  0.2 0.325 0.425  0.225 0.325 0.425  0.25 0.325 0.425  0.275 0.325 0.425  0.3 0.325 0.425  0.325 0.325 0.425  0.35 0.325 0.4  0.35 0.325 0.425  0.375 0.325 0.425  0.025 0.35 0.425  0 0.35 0.425  0.05 0.35 0.425  0.075 0.35 0.425  0.1 0.35 0.425  0.125 0.35 0.425  0.15 0.35 0.425  0.175 0.35 0.425  0.2 0.35 0.425  0.225 0.35 0.425  0.25 0.35 0.425  0.275 0.35 0.425  0.3 0.35 0.425  0.325 0.35 0.425  0.35 0.35 0.4  0.35 0.35 0.425  0.375 0.35 0.425  0.025 0.375 0.425  0 0.375 0.425  0.05 0.375 0.425  0.075 0.375 0.425  0.1 0.375 0.425  0.125 0.375 0.425  0.15 0.375 0.425  0.175 0.375 0.425  0.2 0.375 0.425  0.225 0.375 0.425  0.25 0.375 0.4  0.25 0.375 0.425  0.275 0.375 0.4  0.275 0.375 0.425  0.3 0.375 0.4  0.3 0.375 0.425  0.325 0.375 0.425  0.35 0.375 0.425  0.375 0.375 0.425  0.025 0.4 0.425  0 0.4 0.425  0.05 0.4 0.425  0.075 0.4 0.425  0.1 0.4 0.425  0.125 0.4 0.425  0.15 0.4 0.425  0.175 0.4 0.425  0.2 0.4 0.425  0.225 0.4 0.4  0.225 0.4 0.425  0.25 0.4 0.4  0.25 0.4 0.425  0.275 0.4 0.425  0.3 0.4 0.425  0.325 0.4 0.425  0.025 0.425 0.425  0 0.425 0.425  0.05 0.425 0.425  0.075 0.425 0.425  0.1 0.425 0.425  0.125 0.425 0.425  0.15 0.425 0.425  0.175 0.425 0.425  0.2 0.425 0.4  0.2 0.425 0.425  0.225 0.425 0.4  0.225 0.425 0.425  0.25 0.425 0.425  0.275 0.425 0.425  0.025 0.45 0.425  0.05 0.45 0.425  0.075 0.45 0.425  0.1 0.45 0.425  0.125 0.45 0.425  0.15 0.45 0.4  0.15 0.45 0.425  0.175 0.45 0.4  0.175 0.45 0.425  0.2 0.45 0.425  0.225 0.45 0.425  0.25 0.45 0.425  0.025 0.475 0.425  0.05 0.475 0.425  0.075 0.475 0.425  0.1 0.475 0.425  0.125 0.475 0.4  0.125 0.475 0.425  0.15 0.475 0.4  0.15 0.475 0.425  0.175 0.475 0.4  0.175 0.475 0.425  0.2 0.475 0.425  0.075 0.5 0.425  0.1 0.5 0.425  0.125 0.5 0.425  0.15 0.5 0.425  0.175 0.5 0.425  0.2 0.5 0.425  0.3 0.275 0.45  0.3 0.25 0.45  0.275 0.275 0.45  0.325 0.275 0.45  0.325 0.25 0.45  0.35 0.275 0.45  0.1 0.3 0.45  0.125 0.3 0.45  0.15 0.3 0.45  0.175 0.3 0.45  0.175 0.275 0.45  0.2 0.3 0.45  0.2 0.275 0.45  0.225 0.3 0.45  0.225 0.275 0.45  0.25 0.3 0.45  0.25 0.275 0.45  0.275 0.3 0.45  0.3 0.3 0.45  0.325 0.3 0.45  0.35 0.3 0.45  0.375 0.3 0.45  0.025 0.325 0.45  0 0.3 0.45  0 0.325 0.45  0.05 0.325 0.45  0.075 0.325 0.45  0.075 0.3 0.45  0.1 0.325 0.45  0.125 0.325 0.45  0.15 0.325 0.45  0.175 0.325 0.45  0.2 0.325 0.45  0.225 0.325 0.45  0.25 0.325 0.45  0.275 0.325 0.45  0.3 0.325 0.45  0.325 0.325 0.45  0.35 0.325 0.45  0.375 0.325 0.45  0.4 0.325 0.45  0.025 0.35 0.45  0 0.35 0.45  0.05 0.35 0.45  0.075 0.35 0.45  0.1 0.35 0.45  0.125 0.35 0.45  0.15 0.35 0.45  0.175 0.35 0.45  0.2 0.35 0.45  0.225 0.35 0.45  0.25 0.35 0.45  0.275 0.35 0.45  0.3 0.35 0.45  0.325 0.35 0.45  0.35 0.35 0.45  0.375 0.35 0.45  0.4 0.325 0.425  0.4 0.35 0.425  0.4 0.35 0.45  0.425 0.35 0.45  0.025 0.375 0.45  0 0.375 0.45  0.05 0.375 0.45  0.075 0.375 0.45  0.1 0.375 0.45  0.125 0.375 0.45  0.15 0.375 0.45  0.175 0.375 0.45  0.2 0.375 0.45  0.225 0.375 0.45  0.25 0.375 0.45  0.275 0.375 0.45  0.3 0.375 0.45  0.325 0.375 0.45  0.35 0.375 0.45  0.375 0.375 0.45  0.4 0.375 0.425  0.4 0.375 0.45  0.425 0.375 0.45  0.025 0.4 0.45  0 0.4 0.45  0.05 0.4 0.45  0.075 0.4 0.45  0.1 0.4 0.45  0.125 0.4 0.45  0.15 0.4 0.45  0.175 0.4 0.45  0.2 0.4 0.45  0.225 0.4 0.45  0.25 0.4 0.45  0.275 0.4 0.45  0.3 0.4 0.45  0.325 0.4 0.45  0.35 0.4 0.425  0.35 0.4 0.45  0.375 0.4 0.425  0.375 0.4 0.45  0.4 0.4 0.45  0.425 0.4 0.45  0.025 0.425 0.45  0.05 0.425 0.45  0.075 0.425 0.45  0.1 0.425 0.45  0.125 0.425 0.45  0.15 0.425 0.45  0.175 0.425 0.45  0.2 0.425 0.45  0.225 0.425 0.45  0.25 0.425 0.45  0.275 0.425 0.45  0.3 0.425 0.45  0.325 0.425 0.425  0.325 0.425 0.45  0.35 0.425 0.425  0.35 0.425 0.45  0.375 0.425 0.425  0.375 0.425 0.45  0.4 0.425 0.45  0.025 0.45 0.45  0.05 0.45 0.45  0.075 0.45 0.45  0.1 0.45 0.45  0.125 0.45 0.45  0.15 0.45 0.45  0.175 0.45 0.45  0.2 0.45 0.45  0.225 0.45 0.45  0.25 0.45 0.45  0.275 0.45 0.45  0.3 0.45 0.45  0.35 0.45 0.45  0.375 0.45 0.45  0.4 0.45 0.45  0.05 0.475 0.45  0.075 0.475 0.45  0.1 0.475 0.45  0.125 0.475 0.45  0.15 0.475 0.45  0.175 0.475 0.45  0.2 0.475 0.45  0.225 0.475 0.425  0.225 0.475 0.45  0.25 0.475 0.45  0.275 0.475 0.45  0.075 0.5 0.45  0.1 0.5 0.45  0.125 0.5 0.45  0.15 0.5 0.45  0.175 0.5 0.45  0.2 0.5 0.45  0.225 0.5 0.45  0.25 0.5 0.45  0.125 0.525 0.45  0.15 0.525 0.425  0.15 0.525 0.45  0.125 0.525 0.425  0.175 0.525 0.425  0.175 0.525 0.45  0.2 0.525 0.45  0.225 0.525 0.45  0.15 0.55 0.425  0.15 0.55 0.45  0.175 0.55 0.425  0.175 0.55 0.45  0.2 0.55 0.45  0.175 0.575 0.45  0.2 0.575 0.45  0.3
[...]
<PointData  Scalars="f_153"> 
<DataArray  type="Float64"  Name="f_153"  format="ascii">1.0164946799257467e+02  1.0173442265029867e+02  1.0179956832986274e+02  1.0170310256982485e+02  1.0178393889841664e+02  1.0188069143963638e+02  1.0184540178718819e+02  1.0194195932875306e+02  1.0164552209759231e+02  1.0192181110636268e+02  1.0201807530455775e+02  1.0195352579837089e+02  1.0171299053715632e+02  1.0198993060196422e+02  1.0208557358845665e+02  1.0197886354557586e+02  1.0189935834345899e+02  1.0199540496519943e+02  1.0207440814404200e+02  1.0176359546800418e+02  1.0169344953556782e+02  1.0162081113239347e+02  1.0204978924895389e+02  1.0214450804081385e+02  1.0182629690309389e+02  1.0167863624099728e+02  1.0211214706496503e+02  1.0220574342911539e+02  1.0188148747187869e+02  1.0202809584203874e+02  1.0194590270025786e+02  1.0204113702112005e+02  1.0212262680207483e+02  1.0180727960967383e+02  1.0173481121424818e+02  1.0166115229246468e+02  1.0126015515232103e+02  1.0129027820317970e+02  1.0122383002799745e+02  1.0127633955494723e+02  1.0134472790000763e+02  1.0210146460623672e+02  1.0219497269247373e+02  1.0187209083299844e+02  1.0172094708132289e+02  1.0149526252721417e+02  1.0154834207402419e+02  1.0158711197282274e+02  1.0153221836767617e+02  1.0139497051924994e+02  1.0144438996402275e+02  1.0148029532060742e+02  1.0142917101904642e+02  1.0139293567335288e+02  1.0216600344579372e+02  1.0225819869164617e+02  1.0192916303827066e+02  1.0172958849314016e+02  1.0177365713431446e+02  1.0163545512912282e+02  1.0152519586729187e+02  1.0143508196801105e+02  1.0216600344579329e+02  1.0222176726426993e+02  1.0225819869164931e+02  1.0231237925943100e+02  1.0192916303827327e+02  1.0197848140720325e+02  1.0181926190060541e+02  1.0167725332934964e+02  1.0226884377415391e+02  1.0235761384130865e+02  1.0230197962697807e+02  1.0202007208365200e+02  1.0185777678250689e+02  1.0230733359665462e+02  1.0239400853769176e+02  1.0233719615768116e+02  1.0233733589438317e+02  1.0242166290209047e+02  1.0236394995240151e+02  1.0235893807459081e+02  1.0244066053792481e+02  1.0206961465582700e+02  1.0198514384543128e+02  1.0207927360366809e+02  1.0216284721832268e+02  1.0184408831669919e+02  1.0169519402023121e+02  1.0130155819736392e+02  1.0137153450787760e+02  1.0122094873706402e+02  1.0124495429816869e+02  1.0105948080999991e+02  1.0103551282924697e+02  1.0105608481275286e+02  1.0111029557051057e+02  1.0108022250502755e+02  1.0113354120193155e+02  1.0111131383735088e+02  1.0103667901966914e+02  1.0109193832716461e+02  1.0214505838665008e+02  1.0223707909329758e+02  1.0191068726787509e+02  1.0175665991979335e+02  1.0161981955101332e+02  1.0156338818646108e+02  1.0151054122027175e+02  1.0145797343620197e+02  1.0142111351097520e+02  1.0132249252957432e+02  1.0134903498389136e+02  1.0126579231875731e+02  1.0129109509354819e+02  1.0117623301910849e+02  1.0122040222066721e+02  1.0124482491948545e+02  1.0119936702321586e+02  1.0114022152348743e+02  1.0118422690950527e+02  1.0120807959908822e+02  1.0116277946232792e+02  1.0115554493478527e+02  1.0117908426939174e+02  1.0115636487321281e+02  1.0221145350304613e+02  1.0230197962697544e+02  1.0196935683019402e+02  1.0181086412022428e+02  1.0166953577990533e+02  1.0155672803685535e+02  1.0146447790312740e+02  1.0139031572485143e+02  1.0133094385622651e+02  1.0128381085972397e+02  1.0124667264760666e+02  1.0121765447996330e+02  1.0119518516520967e+02  1.0226884377415261e+02  1.0235761384130559e+02  1.0202007208365362e+02  1.0185777678250683e+02  1.0171253453550132e+02  1.0156393935776146e+02  1.0159659444449026e+02  1.0147131862459148e+02  1.0150177528836380e+02  1.0142565036153457e+02  1.0231730944494890e+02  1.0240407487145463e+02  1.0206285223117554e+02  1.0189740687699454e+02  1.0171253453549652e+02  1.0174883833692181e+02  1.0163020487698086e+02  1.0153313252527136e+02  1.0145524265724876e+02  1.0235694635694227e+02  1.0244146478446778e+02  1.0205398288877809e+02  1.0209774050226781e+02  1.0188923734302698e+02  1.0192978567765262e+02  1.0177848369221260e+02  1.0165762342092023e+02  1.0238785078915494e+02  1.0246988069450009e+02  1.0212478927477859e+02  1.0195495408861251e+02  1.0180151210749540e+02  1.0241010853917503e+02  1.0248940482927000e+02  1.0214404920211281e+02  1.0242378725146577e+02  1.0215556150088278e+02  1.0210353040322147e+02  1.0219518413799626e+02  1.0187408044137682e+02  1.0111007468978153e+02  1.0115123564404053e+02  1.0109671944151199e+02  1.0112693642842714e+02  1.0118082105913189e+02  1.0112780611953981e+02  1.0107237344105486e+02  1.0110938934015522e+02  1.0105287974526260e+02  1.0109505577919397e+02  1.0218067914169701e+02  1.0227094024988560e+02  1.0194214236361167e+02  1.0178581810801224e+02  1.0172298220306136e+02  1.0164651141815025e+02  1.0158882054822620e+02  1.0153519894366845e+02  1.0148144989311089e+02  1.0144403461905183e+02  1.0139333539136629e+02  1.0137055748314346e+02  1.0132200151863623e+02  1.0131153080764970e+02  1.0126433513037369e+02  1.0126446152346448e+02  1.0121795836097226e+02  1.0122716877648517e+02  1.0119783785051679e+02  1.0117495269673479e+02  1.0115726174601764e+02  1.0114374044798409e+02  1.0224860229454409e+02  1.0233719615768928e+02  1.0200212114037734e+02  1.0184124918959648e+02  1.0169735398002827e+02  1.0158243998214570e+02  1.0148839565451252e+02  1.0141279474748667e+02  1.0135231067598124e+02  1.0130436620952500e+02  1.0126667895815312e+02  1.0123733204918365e+02  1.0121471000089642e+02  1.0119746916316485e+02  1.0230733359665069e+02  1.0239400853769823e+02  1.0205398288877745e+02  1.0188923734302874e+02  1.0174133889379995e+02  1.0162322798049087e+02  1.0152656209511642e+02  1.0144896086719096e+02  1.0136485908623980e+02  1.0138703244679189e+02  1.0133813927036529e+02  1.0129992128049781e+02  1.0127038105459249e+02  1.0124782250815835e+02  1.0123082565890213e+02  1.0235694635694031e+02  1.0244146478447026e+02  1.0209774050226741e+02  1.0192978567765130e+02  1.0177848369221529e+02  1.0165762342092081e+02  1.0155865804313851e+02  1.0147925811566992e+02  1.0141598424753784e+02  1.0136615657611921e+02  1.0239753179820568e+02  1.0247966315933377e+02  1.0213343290917025e+02  1.0196292144310785e+02  1.0180882144864819e+02  1.0168568769921731e+02  1.0155865804313896e+02  1.0158479012666244e+02  1.0150385116772530e+02  1.0143939655526033e+02  1.0242918325945985e+02  1.0250869836237747e+02  1.0216110966331064e+02  1.0198868288195098e+02  1.0183239139179435e+02  1.0170747838381547e+02  1.0160504756696533e+02  1.0152287153735249e+02  1.0245198476972486e+02  1.0252865117313395e+02  1.0218081964836230e+02  1.0197295312716165e+02  1.0200710933124711e+02  1.0184923147270081e+02  1.0172304496282378e+02  1.0246600299085580e+02  1.0219260304448464e+02  1.0198381703363323e+02  1.0201823404051324e+02  1.0185937277560576e+02  1.0202207931117353e+02  1.0186283563977034e+02  1.0116470999542868e+02  1.0110927378102545e+02  1.0114109248499558e+02  1.0108472252349127e+02  1.0112258822427006e+02  1.0106512083085650e+02  1.0110823998485002e+02  1.0220842993687988e+02  1.0229665920873919e+02  1.0196651606809391e+02  1.0180846970375036e+02  1.0174456582536564e+02  1.0166723504717213e+02  1.0160856356238349e+02  1.0155433178471566e+02  1.0149966357883666e+02  1.0146179068754049e+02  1.0141022108399224e+02  1.0138719021698275e+02  1.0133779725216810e+02  1.0132727482555984e+02  1.0127926269157976e+02  1.0127953608645439e+02  1.0123222566197704e+02  1.0124176786860806e+02  1.0119461280718420e+02  1.0121212688472558e+02  1.0118906631592023e+02  1.0117130377584408e+02  1.0115778525699122e+02  1.0114765541105565e+02  1.0227755140339065e+02  1.0236394995240015e+02  1.0202751390260545e+02  1.0186485848504783e+02  1.0171895565512210e+02  1.0160239416687631e+02  1.0150692705073082e+02  1.0143017027607773e+02  1.0136877623340791e+02  1.0132015116709920e+02  1.0128198566611451e+02  1.0125233257118794e+02  1.0122954388380300e+02  1.0121224347013212e+02  1.0118450252584731e+02  1.0119929331730970e+02  1.0118976521969834e+02  1.0233733589438083e+02  1.0242166290209772e+02  1.0208026910399056e+02  1.0191368722132562e+02  1.0176371023390203e+02  1.0164390100571397e+02  1.0154577032383862e+02  1.0146698280456930e+02  1.0140412368939486e+02  1.0135453799000747e+02  1.0131583718210153e+02  1.0128599212674743e+02  1.0126327274566100e+02  1.0124622515075404e+02  1.0121821381767327e+02  1.0123364031984836e+02  1.0122452746129215e+02  1.0238785078915680e+02  1.0246988069450346e+02  1.0212478927477244e+02  1.0195495408861103e+02  1.0180151210749501e+02  1.0167890939952318e+02  1.0157844217096780e+02  1.0149782862992075e+02  1.0143360487487502e+02  1.0138307294570400e+02  1.0132735662295408e+02  1.0134378472085723e+02  1.0129752474708208e+02  1.0131364767843303e+02  1.0127490102282312e+02  1.0129086667959469e+02  1.0127392499481034e+02  1.0126155525026225e+02  1.0125271449885254e+02  1.0242918325945986e+02  1.0250869836237423e+02  1.0216110966331095e+02  1.0198868288194670e+02  1.0183239139179409e+02  1.0170747838382023e+02  1.0160504756696723e+02  1.0152287153735089e+02  1.0145745016577555e+02  1.0138871767105246e+02  1.0140605625686410e+02  1.0134935304324991e+02  1.0136619776322948e+02  1.0133573444445287e+02  1.0131282107432602e+02  1.0129589173339369e+02  1.0246142398094719e+02  1.0253820849871163e+02  1.0218927734918964e+02  1.0201490950526983e+02  1.0185638530744183e+02  1.0172966394168017e+02  1.0162567466418186e+02  1.0154224254545184e+02  1.0145745016577575e+02  1.0147584046782963e+02  1.0140605625686131e+02  1.0142372234541432e+02  1.0138336484473599e+02  1.0135259323278932e+02  1.0248465531385357e+02  1.0220933962245100e+02  1.0203367177900245e+02  1.0187353049918590e+02  1.0174551454359080e+02  1.0161950135756533e+02  1.0164039380198905e+02  1.0153642002244135e+02  1.0155604221216764e+02  1.0148891233192904e+02  1.0143624709499805e+02  1.0139550225516072e+02  1.0249894294480347e+02  1.0222133570215333e+02  1.0204500203140030e+02  1.0188385725427021e+02  1.0173242538482408e+02  1.0175506752571543e+02  1.0162820318132717e+02  1.0164925628951688e+02  1.0154456796506409e+02  1.0156434178425708e+02  1.0149676120387809e+02  1.0204892207723964e+02  1.0188738548717583e+02  1.0175834644701735e+02  1.0165229333000096e+02  1.0156718370565829e+02  1.0149944338032464e+02  1.0115042107636067e+02  1.0109338890432879e+02  1.0117419762932673e+02  1.0113183147472591e+02  1.0107368814644731e+02  1.0111745233999687e+02  1.0168203306411741e+02  1.0156799222825249e+02  1.0147445344552310e+02  1.0139903199871706e+02  1.0134904200381108e+02  1.0133845849723374e+02  1.0128986506618415e+02  1.0129021568591877e+02  1.0124233160872681e+02  1.0125208076306028e+02  1.0120435305723625e+02  1.0122219138825244e+02  1.0119897981614596e+02  1.0118114244325619e+02  1.0116760476419390e+02  1.0115749250514980e+02  1.0229838937589948e+02  1.0231432101583404e+02  1.0238232565588380e+02  1.0204558896033616e+02  1.0188173606221949e+02  1.0182465961805249e+02  1.0173438276121378e+02  1.0161664287511769e+02  1.0152014428698484e+02  1.0144254242060603e+02  1.0138047411051248e+02  1.0133133603108729e+02  1.0129280087511070e+02  1.0126290123914842e+02  1.0123996697234833e+02  1.0122259955000526e+02  1.0120963936729395e+02  1.0120013831006376e+02  1.0119333528940746e+02  1.0235893807459068e+02  1.0244066053792294e+02  1.0209898312014036e+02  1.0193116908534175e+02  1.0177968935331754e+02  1.0165866509218756e+02  1.0155947206364949e+02  1.0147981691069354e+02  1.0141626783683621e+02  1.0136615972432291e+02  1.0132708513413822e+02  1.0129699369063863e+02  1.0127413212566071e+02  1.0125702315800362e+02  1.0124443523129007e+02  1.0123535679289338e+02  1.0118291568544211e+02  1.0121808981215045e+02  1.0122897273862485e+02  1.0122464427830583e+02  1.0241010853917604e+02  1.0248940482926645e+02  1.0214404920210860e+02  1.0197295312715876e+02  1.0181796297557965e+02  1.0169411338800755e+02  1.0159255653582900e+02  1.0151105510638928e+02  1.0144612688434208e+02  1.0139506337369694e+02  1.0135539670722535e+02  1.0132501231810153e+02  1.0130209102028842e+02  1.0128509185689052e+02  1.0127272412967530e+02  1.0126392341134532e+02  1.0124656105724999e+02  1.0125782904611637e+02  1.0125376462844663e+02  1.0245198476972423e+02  1.0252865117313438e+02  1.0218081964836139e+02  1.0200710933124603e+02  1.0184923147270254e+02  1.0172304496282490e+02  1.0161950135756878e+02  1.0153642002244108e+02  1.0147028142429228e+02  1.0141834755456884e+02  1.0137810595918981e+02  1.0134739371514051e+02  1.0132434086276575e+02  1.0130735658360216e+02  1.0128363271717102e+02  1.0129510320836299e+02  1.0127495917102020e+02  1.0128647381637012e+02  1.0128057077674305e+02  1.0127668689697201e+02  1.0248465531385182e+02  1.0220933962244851e+02  1.0203367177900063e+02  1.0187353049918578e+02  1.0174551454359424e+02  1.0164039380198986e+02  1.0155604221216730e+02  1.0148891233192620e+02  1.0143624709500003e+02  1.0139550225515914e+02  1.0136447991741093e+02  1.0134127266567177e+02  1.0131255850997360e+02  1.0132425239646390e+02  1.0130034395835845e+02  1.0131204589986108e+02  1.0129176482682010e+02  1.0130351378666330e+02  1.0129772993908654e+02  1.0250820116573942e+02  1.0222965515924538e+02  1.0205267708853806e+02  1.0189089566321523e+02  1.0176156977689469e+02  1.0165530365054919e+02  1.0157002197500377e+02  1.0150215622002125e+02  1.0144893826759608e+02  1.0140780259579171e+02  1.0137652781635953e+02  1.0135318088600749e+02  1.0132391090909212e+02  1.0131542761033754e+02  1.0130971173144916e+02  1.0224180470755800e+02  1.0206415684442612e+02  1.0190135660815784e+02  1.0177124749139006e+02  1.0166428187997408e+02  1.0157843042683308e+02  1.0151010862264299e+02  1.0144375278851615e+02  1.0145654367034589e+02  1.0141515771688475e+02  1.0138371600833143e+02  1.0206813246112505e+02  1.0190493289930997e+02  1.0177457097145412e+02  1.0166735951716366e+02  1.0158130995075688e+02  1.0151282590294268e+02  1.0145913534601794e+02  1.0141765612037611e+02  1.0177154829789409e+02  1.0164951529124041e+02  1.0166454686746202e+02  1.0175535948059859e+02  1.0156458179398071e+02  1.0157867433851263e+02  1.0151032624593194e+02  1.0145673650012894e+02  1.0164091142257899e+02  1.0165583321720553e+02  1.0155652124795255e+02  1.0157050878602269e+02  1.0150258993371968e+02  1.0155676979196208e+02  1.0148955896488644e+02  1.0113732512970392e+02  1.0107878010463398e+02  1.0109855039114734e+02  1.0115597656473999e+02  1.0112291785387154e+02  1.0134517309720570e+02  1.0129661594198529e+02  1.0125824847557804e+02  1.0122819757519490e+02  1.0117985995879215e+02  1.0121017880483603e+02  1.0120488340612542e+02  1.0118698999554633e+02  1.0117343078034978e+02  1.0116332027387010e+02  1.0231118506660854e+02  1.0239238486458929e+02  1.0174366860342660e+02  1.0169093897073823e+02  1.0189191777559601e+02  1.0162522551572398e+02  1.0157621959151443e+02  1.0152809946944370e+02  1.0148207447890640e+02  1.0144998168230946e+02  1.0140615225663525e+02  1.0138749728968797e+02  1.0133803881170986e+02  1.0129926868608142e+02  1.0126920803144311e+02  1.0124617387911313e+02  1.0122875463677278e+02  1.0121577798755592e+02  1.0120628401445221e+02  1.0119950113057716e+02  1.0237220858635627e+02  1.0245106261109211e+02  1.0211016711818685e+02  1.0194171809856402e+02  1.0178930897985433e+02  1.0166755934969602e+02  1.0156771951374606e+02  1.0148753426912219e+02  1.0142355900726611e+02  1.0137312420818932e+02  1.0133381155878105e+02  1.0130355862663717e+02  1.0128059870871081e+02  1.0126344085969635e+02  1.0125084024734295e+02  1.0124177300426790e+02  1.0123541307976370e+02  1.0123111240085849e+02  1.0242378725146789e+02  1.0250009765147307e+02  1.0215556150087905e+02  1.0198381703363164e+02  1.0182786823496967e+02  1.0170327396387324e+02  1.0160105315275349e+02  1.0151900886707621e+02  1.0145364510399743e+02  1.0140224880208750e+02  1.0136234071225914e+02  1.0133179374039835e+02  1.0130877475526982e+02  1.0129172863911404e+02  1.0127935094466203e+02  1.0127056449770933e+02  1.0126449731530029e+02  1.0126046338822835e+02  1.0246600299085669e+02  1.0253958125605602e+02  1.0219260304447754e+02  1.0201823404050931e+02  1.0185937277561182e+02  1.0173242538482447e+02  1.0162820318133048e+02  1.0154456796506791e+02  1.0147798556749089e+02  1.0142571332137682e+02  1.0138522698416087e+02  1.0135435073519000e+02  1.0133120026064208e+02  1.0131417018107349e+02  1.0130190869438037e+02  1.0129329578066250e+02  1.0128742217012284e+02  1.0128357080281268e+02  1.0128120107395075e+02  1.0249894294480187e+02  1.0222133570214905e+02  1.0204500203139753e+02  1.0188385725427135e+02  1.0175506752572124e+02  1.0164925628951615e+02  1.0156434178426048e+02  1.0149676120387994e+02  1.0144375278851547e+02  1.0140276018933505e+02  1.0137157233623194e+02  1.0134826714614373e+02  1.0133120164760713e+02  1.0131898820151052e+02  1.0131047404619787e+02  1.0130472118218557e+02  1.0130098845928708e+02  1.0129871621509066e+02  1.0224180470754949e+02  1.0206415684442680e+02  1.0190135660816013e+02  1.0177124749139496e+02  1.0166428187997144e+02  1.0157843042683622e+02  1.0151010862264383e+02  1.0145654367034670e+02  1.0141515771688623e+02  1.0138371600832951e+02  1.0136027061316851e+02  1.0133610792343903e+02  1.0134315256495107e+02  1.0133094920384993e+02  1.0132248472947100e+02  1.0131680079015206e+02  1.0131313907170735e+02  1.0207572957584797e+02  1.0191190005854811e+02  1.0178100177122168e+02  1.0167333069744282e+02  1.0158690489898636e+02  1.0151812338089387e+02  1.0146420872504397e+02  1.0142257059931511e+02  1.0139096077593391e+02  1.0136741630197406e+02  1.0135025299583320e+02  1.0133804342979138e+02  1.0132959811713549e+02  1.0132394654403251e+02  1.0132032008358124e+02  1.0191550693854350e+02  1.0178435346239665e+02  1.0167643364188687e+02  1.0158980752701025e+02  1.0152086186233960e+02  1.0146682009688894e+02  1.0142508752152187e+02  1.0138614942947542e+02  1.0139341183734311e+02  1.0136982523017465e+02  1.0178131057999572e+02  1.0167360097131856e+02  1.0158715207765627e+02  1.0151834225251045e+02  1.0146440101932198e+02  1.0142273708810474e+02  1.0139110322254159e+02  1.0136753667857684e+02  1.0166482199555035e+02  1.0157892374653839e+02  1.0151054480825677e+02  1.0144932202026939e+02  1.0145692632955335e+02  1.0141548853329145e+02  1.0156507906359703e+02  1.0149741148317409e+02  1.0144432186007749e+02  1.0140325093466177e+02  1.0147884484414580e+02  1.0142646264208820e+02  1.0113919028004700e+02  1.0115786727857426e+02  1.0112476901800733e+02  1.0123024286358887e+02  1.0118179151312803e+02  1.0120688874509135e+02  1.0118897126036892e+02  1.0117539989441966e+02  1.0116528544209473e+02  1.0162816663834607e+02  1.0174683459774151e+02  1.0153082408485261e+02  1.0148468489283644e+02  1.0145252990986371e+02  1.0140859214506668e+02  1.0138990047889850e+02  1.0134747227353343e+02  1.0134032870340234e+02  1.0129880459078322e+02  1.0130147354070112e+02  1.0126035357920448e+02  1.0127135263930859e+02  1.0124827892073306e+02  1.0123083656815476e+02  1.0121784909039552e+02  1.0120835264994260e+02  1.0120157213111594e+02  1.0237719216580469e+02  1.0245290370184722e+02  1.0211384821410270e+02  1.0179259028365125e+02  1.0167060823071392e+02  1.0157054427935476e+02  1.0149017712479677e+02  1.0142605262416504e+02  1.0137550169590995e+02  1.0133610231010007e+02  1.0130578838470929e+02  1.0128278889839224e+02  1.0126560848146444e+02  1.0125299793549983e+02  1.0124392929713626e+02  1.0123757283163123e+02  1.0123327730248938e+02  1.0242893133386991e+02  1.0250199344825097e+02  1.0215935282234645e+02  1.0198756861709394e+02  1.0194535751615275e+02  1.0183124866780766e+02  1.0170641533037119e+02  1.0160396357047493e+02  1.0152173234104932e+02  1.0145621541396909e+02  1.0140470023294519e+02  1.0136470363410197e+02  1.0133409472941467e+02  1.0131103589648204e+02  1.0129396742668125e+02  1.0128158034525963e+02  1.0127279323359882e+02  1.0126673029268733e+02  1.0126270223744699e+02  1.0247128186166401e+02  1.0219648597533896e+02  1.0202207931117037e+02  1.018628356397746