<?xml version="1.0"?>
<VTKFile type="UnstructuredGrid"  version="0.1"  >
<UnstructuredGrid>
<Piece  NumberOfPoints="7656" NumberOfCells="39114">
<Points>
<DataArray  type="Float64"  NumberOfComponents="3"  format="ascii">0 0 0  0.025 0 0  0.025 0.025 0  0.025 0.025 0.025  0.025 0 0.025  0 0 0.025  0 0.025 0  0 0.025 0.025  0.05 0 0  0.05 0.025 0  0.05 0.025 0.025  0.05 0 0.025  0.075 0 0  0.075 0.025 0  0.075 0.025 0.025  0.075 0 0.025  0.1 0 0  0.1 0.025 0  0.1 0.025 0.025  0.1 0 0.025  0.125 0 0  0.125 0.025 0  0.125 0.025 0.025  0.125 0 0.025  0.15 0 0  0.15 0.025 0  0.15 0.025 0.025  0.15 0 0.025  0.175 0 0  0.175 0.025 0  0.175 0.025 0.025  0.175 0 0.025  0.2 0 0  0.2 0.025 0  0.2 0.025 0.025  0.2 0 0.025  0.225 0 0  0.225 0.025 0  0.225 0.025 0.025  0.225 0 0.025  0.25 0 0  0.25 0.025 0  0.25 0.025 0.025  0.25 0 0.025  0.275 0 0  0.275 0.025 0  0.275 0.025 0.025  0.275 0 0.025  0.3 0 0  0.3 0.025 0  0.3 0.025 0.025  0.3 0 0.025  0.325 0 0  0.325 0.025 0  0.325 0.025 0.025  0.325 0 0.025  0.35 0 0  0.35 0.025 0  0.35 0.025 0.025  0.35 0 0.025  0.375 0 0  0.375 0.025 0  0.375 0.025 0.025  0.375 0 0.025  0.4 0 0  0.4 0.025 0  0.4 0.025 0.025  0.4 0 0.025  0.425 0 0  0.425 0.025 0  0.425 0.025 0.025  0.425 0 0.025  0.45 0 0  0.45 0.025 0  0.45 0.025 0.025  0.45 0 0.025  0.475 0 0  0.475 0.025 0  0.475 0.025 0.025  0.475 0 0.025  0.5 0 0  0.5 0.025 0  0.5 0.025 0.025  0.5 0 0.025  0.025 0.05 0  0.025 0.05 0.025  0 0.05 0  0 0.05 0.025  0.05 0.05 0  0.05 0.05 0.025  0.075 0.05 0  0.075 0.05 0.025  0.1 0.05 0  0.1 0.05 0.025  0.125 0.05 0  0.125 0.05 0.025  0.15 0.05 0  0.15 0.05 0.025  0.175 0.05 0  0.175 0.05 0.025  0.2 0.05 0  0.2 0.05 0.025  0.225 0.05 0  0.225 0.05 0.025  0.25 0.05 0  0.25 0.05 0.025  0.275 0.05 0  0.275 0.05 0.025  0.3 0.05 0  0.3 0.05 0.025  0.325 0.05 0  0.325 0.05 0.025  0.35 0.05 0  0.35 0.05 0.025  0.375 0.05 0  0.375 0.05 0.025  0.4 0.05 0  0.4 0.05 0.025  0.425 0.05 0  0.425 0.05 0.025  0.45 0.05 0  0.45 0.05 0.025  0.475 0.05 0  0.475 0.05 0.025  0.5 0.05 0  0.5 0.05 0.025  0.525 0.05 0  0.525 0.05 0.025  0.025 0.075 0  0.025 0.075 0.025  0 0.075 0  0 0.075 0.025  0.05 0.075 0  0.05 0.075 0.025  0.075 0.075 0  0.075 0.075 0.025  0.1 0.075 0  0.1 0.075 0.025  0.125 0.075 0  0.125 0.075 0.025  0.15 0.075 0  0.15 0.075 0.025  0.175 0.075 0  0.175 0.075 0.025  0.2 0.075 0  0.2 0.075 0.025  0.225 0.075 0  0.225 0.075 0.025  0.25 0.075 0  0.25 0.075 0.025  0.275 0.075 0  0.275 0.075 0.025  0.3 0.075 0  0.3 0.075 0.025  0.325 0.075 0  0.325 0.075 0.025  0.35 0.075 0  0.35 0.075 0.025  0.375 0.075 0  0.375 0.075 0.025  0.4 0.075 0  0.4 0.075 0.025  0.425 0.075 0  0.425 0.075 0.025  0.45 0.075 0  0.45 0.075 0.025  0.475 0.075 0  0.475 0.075 0.025  0.5 0.075 0  0.5 0.075 0.025  0.525 0.075 0  0.525 0.075 0.025  0.025 0.1 0  0.025 0.1 0.025  0 0.1 0  0 0.1 0.025  0.05 0.1 0  0.05 0.1 0.025  0.075 0.1 0  0.075 0.1 0.025  0.1 0.1 0  0.1 0.1 0.025  0.125 0.1 0  0.125 0.1 0.025  0.15 0.1 0  0.15 0.1 0.025  0.175 0.1 0  0.175 0.1 0.025  0.2 0.1 0  0.2 0.1 0.025  0.225 0.1 0  0.225 0.1 0.025  0.25 0.1 0  0.25 0.1 0.025  0.275 0.1 0  0.275 0.1 0.025  0.3 0.1 0  0.3 0.1 0.025  0.325 0.1 0  0.325 0.1 0.025  0.35 0.1 0  0.35 0.1 0.025  0.375 0.1 0  0.375 0.1 0.025  0.4 0.1 0  0.4 0.1 0.025  0.425 0.1 0  0.425 0.1 0.025  0.45 0.1 0  0.45 0.1 0.025  0.475 0.1 0  0.475 0.1 0.025  0.5 0.1 0  0.5 0.1 0.025  0.525 0.1 0  0.525 0.1 0.025  0.025 0.125 0  0.025 0.125 0.025  0 0.125 0  0 0.125 0.025  0.05 0.125 0  0.05 0.125 0.025  0.075 0.125 0  0.075 0.125 0.025  0.1 0.125 0  0.1 0.125 0.025  0.125 0.125 0  0.125 0.125 0.025  0.15 0.125 0  0.15 0.125 0.025  0.175 0.125 0  0.175 0.125 0.025  0.2 0.125 0  0.2 0.125 0.025  0.225 0.125 0  0.225 0.125 0.025  0.25 0.125 0  0.25 0.125 0.025  0.275 0.125 0  0.275 0.125 0.025  0.3 0.125 0  0.3 0.125 0.025  0.325 0.125 0  0.325 0.125 0.025  0.35 0.125 0  0.35 0.125 0.025  0.375 0.125 0  0.375 0.125 0.025  0.4 0.125 0  0.4 0.125 0.025  0.425 0.125 0  0.425 0.125 0.025  0.45 0.125 0  0.45 0.125 0.025  0.475 0.125 0  0.475 0.125 0.025  0.5 0.125 0  0.5 0.125 0.025  0.525 0.125 0  0.525 0.125 0.025  0.025 0.15 0  0.025 0.15 0.025  0 0.15 0  0 0.15 0.025  0.05 0.15 0  0.05 0.15 0.025  0.075 0.15 0  0.075 0.15 0.025  0.1 0.15 0  0.1 0.15 0.025  0.125 0.15 0  0.125 0.15 0.025  0.15 0.15 0  0.15 0.15 0.025  0.175 0.15 0  0.175 0.15 0.025  0.2 0.15 0  0.2 0.15 0.025  0.225 0.15 0  0.225 0.15 0.025  0.25 0.15 0  0.25 0.15 0.025  0.275 0.15 0  0.275 0.15 0.025  0.3 0.15 0  0.3 0.15 0.025  0.325 0.15 0  0.325 0.15 0.025  0.35 0.15 0  0.35 0.15 0.025  0.375 0.15 0  0.375 0.15 0.025  0.4 0.15 0  0.4 0.15 0.025  0.425 0.15 0  0.425 0.15 0.025  0.45 0.15 0  0.45 0.15 0.025  0.475 0.15 0  0.475 0.15 0.025  0.5 0.15 0  0.5 0.15 0.025  0.525 0.15 0  0.525 0.15 0.025  0.55 0.15 0.025  0.025 0.175 0  0.025 0.175 0.025  0.05 0.175 0  0.05 0.175 0.025  0.075 0.175 0  0.075 0.175 0.025  0.1 0.175 0  0.1 0.175 0.025  0.125 0.175 0  0.125 0.175 0.025  0.15 0.175 0  0.15 0.175 0.025  0.175 0.175 0  0.175 0.175 0.025  0.2 0.175 0  0.2 0.175 0.025  0.225 0.175 0  0.225 0.175 0.025  0.25 0.175 0  0.25 0.175 0.025  0.275 0.175 0  0.275 0.175 0.025  0.3 0.175 0  0.3 0.175 0.025  0.325 0.175 0  0.325 0.175 0.025  0.35 0.175 0  0.35 0.175 0.025  0.375 0.175 0  0.375 0.175 0.025  0.4 0.175 0  0.4 0.175 0.025  0.425 0.175 0  0.425 0.175 0.025  0.45 0.175 0  0.45 0.175 0.025  0.475 0.175 0  0.475 0.175 0.025  0.5 0.175 0  0.5 0.175 0.025  0.525 0.175 0  0.525 0.175 0.025  0.55 0.175 0.025  0.55 0.175 0  0.05 0.2 0.025  0.075 0.2 0  0.075 0.2 0.025  0.1 0.2 0  0.1 0.2 0.025  0.125 0.2 0  0.125 0.2 0.025  0.15 0.2 0  0.15 0.2 0.025  0.175 0.2 0  0.175 0.2 0.025  0.2 0.2 0  0.2 0.2 0.025  0.225 0.2 0  0.225 0.2 0.025  0.25 0.2 0  0.25 0.2 0.025  0.275 0.2 0  0.275 0.2 0.025  0.3 0.2 0  0.3 0.2 0.025  0.325 0.2 0  0.325 0.2 0.025  0.35 0.2 0  0.35 0.2 0.025  0.375 0.2 0  0.375 0.2 0.025  0.4 0.2 0  0.4 0.2 0.025  0.425 0.2 0  0.425 0.2 0.025  0.45 0.2 0  0.45 0.2 0.025  0.475 0.2 0  0.475 0.2 0.025  0.5 0.2 0  0.5 0.2 0.025  0.525 0.2 0  0.525 0.2 0.025  0.55 0.2 0  0.55 0.2 0.025  0.1 0.225 0.025  0.125 0.225 0  0.125 0.225 0.025  0.15 0.225 0  0.15 0.225 0.025  0.175 0.225 0  0.175 0.225 0.025  0.2 0.225 0  0.2 0.225 0.025  0.225 0.225 0  0.225 0.225 0.025  0.25 0.225 0  0.25 0.225 0.025  0.275 0.225 0  0.275 0.225 0.025  0.3 0.225 0  0.3 0.225 0.025  0.325 0.225 0  0.325 0.225 0.025  0.35 0.225 0  0.35 0.225 0.025  0.375 0.225 0  0.375 0.225 0.025  0.4 0.225 0  0.4 0.225 0.025  0.425 0.225 0  0.425 0.225 0.025  0.45 0.225 0  0.45 0.225 0.025  0.475 0.225 0  0.475 0.225 0.025  0.5 0.225 0  0.5 0.225 0.025  0.525 0.225 0  0.525 0.225 0.025  0.55 0.225 0  0.55 0.225 0.025  0.575 0.225 0  0.575 0.225 0.025  0.15 0.25 0  0.15 0.25 0.025  0.175 0.25 0  0.175 0.25 0.025  0.2 0.25 0  0.2 0.25 0.025  0.225 0.25 0  0.225 0.25 0.025  0.25 0.25 0  0.25 0.25 0.025  0.275 0.25 0  0.275 0.25 0.025  0.3 0.25 0  0.3 0.25 0.025  0.325 0.25 0  0.325 0.25 0.025  0.35 0.25 0  0.35 0.25 0.025  0.375 0.25 0  0.375 0.25 0.025  0.4 0.25 0  0.4 0.25 0.025  0.425 0.25 0  0.425 0.25 0.025  0.45 0.25 0  0.45 0.25 0.025  0.475 0.25 0  0.475 0.25 0.025  0.5 0.25 0  0.5 0.25 0.025  0.525 0.25 0  0.525 0.25 0.025  0.55 0.25 0  0.55 0.25 0.025  0.575 0.25 0  0.575 0.25 0.025  0.6 0.25 0  0.6 0.25 0.025  0.175 0.275 0  0.175 0.275 0.025  0.2 0.275 0  0.2 0.275 0.025  0.225 0.275 0  0.225 0.275 0.025  0.25 0.275 0  0.25 0.275 0.025  0.275 0.275 0  0.275 0.275 0.025  0.3 0.275 0  0.3 0.275 0.025  0.325 0.275 0  0.325 0.275 0.025  0.35 0.275 0  0.35 0.275 0.025  0.375 0.275 0  0.375 0.275 0.025  0.4 0.275 0  0.4 0.275 0.025  0.425 0.275 0  0.425 0.275 0.025  0.45 0.275 0  0.45 0.275 0.025  0.475 0.275 0  0.475 0.275 0.025  0.5 0.275 0  0.5 0.275 0.025  0.525 0.275 0  0.525 0.275 0.025  0.55 0.275 0  0.55 0.275 0.025  0.575 0.275 0  0.575 0.275 0.025  0.6 0.275 0  0.6 0.275 0.025  0.2 0.3 0  0.2 0.3 0.025  0.225 0.3 0  0.225 0.3 0.025  0.25 0.3 0  0.25 0.3 0.025  0.275 0.3 0  0.275 0.3 0.025  0.3 0.3 0  0.3 0.3 0.025  0.325 0.3 0  0.325 0.3 0.025  0.35 0.3 0  0.35 0.3 0.025  0.375 0.3 0  0.375 0.3 0.025  0.4 0.3 0  0.4 0.3 0.025  0.425 0.3 0  0.425 0.3 0.025  0.45 0.3 0  0.45 0.3 0.025  0.475 0.3 0  0.475 0.3 0.025  0.5 0.3 0  0.5 0.3 0.025  0.525 0.3 0  0.525 0.3 0.025  0.55 0.3 0  0.55 0.3 0.025  0.575 0.3 0  0.575 0.3 0.025  0.6 0.3 0  0.6 0.3 0.025  0.225 0.325 0  0.225 0.325 0.025  0.25 0.325 0  0.25 0.325 0.025  0.275 0.325 0  0.275 0.325 0.025  0.3 0.325 0  0.3 0.325 0.025  0.325 0.325 0  0.325 0.325 0.025  0.35 0.325 0  0.35 0.325 0.025  0.375 0.325 0  0.375 0.325 0.025  0.4 0.325 0  0.4 0.325 0.025  0.425 0.325 0  0.425 0.325 0.025  0.45 0.325 0  0.45 0.325 0.025  0.475 0.325 0  0.475 0.325 0.025  0.5 0.325 0  0.5 0.325 0.025  0.525 0.325 0  0.525 0.325 0.025  0.55 0.325 0  0.55 0.325 0.025  0.575 0.325 0  0.575 0.325 0.025  0.6 0.325 0  0.6 0.325 0.025  0.625 0.325 0  0.625 0.325 0.025  0.25 0.35 0  0.25 0.35 0.025  0.275 0.35 0  0.275 0.35 0.025  0.3 0.35 0  0.3 0.35 0.025  0.325 0.35 0  0.325 0.35 0.025  0.35 0.35 0  0.35 0.35 0.025  0.375 0.35 0  0.375 0.35 0.025  0.4 0.35 0  0.4 0.35 0.025  0.425 0.35 0  0.425 0.35 0.025  0.45 0.35 0  0.45 0.35 0.025  0.475 0.35 0  0.475 0.35 0.025  0.5 0.35 0  0.5 0.35 0.025  0.525 0.35 0  0.525 0.35 0.025  0.55 0.35 0  0.55 0.35 0.025  0.575 0.35 0  0.575 0.35 0.025  0.6 0.35 0  0.6 0.35 0.025  0.625 0.35 0  0.625 0.35 0.025  0.275 0.375 0  0.275 0.375 0.025  0.3 0.375 0  0.3 0.375 0.025  0.325 0.375 0  0.325 0.375 0.025  0.35 0.375 0  0.35 0.375 0.025  0.375 0.375 0  0.375 0.375 0.025  0.4 0.375 0  0.4 0.375 0.025  0.425 0.375 0  0.425 0.375 0.025  0.45 0.375 0  0.45 0.375 0.025  0.475 0.375 0  0.475 0.375 0.025  0.5 0.375 0  0.5 0.375 0.025  0.525 0.375 0  0.525 0.375 0.025  0.55 0.375 0  0.55 0.375 0.025  0.575 0.375 0  0.575 0.375 0.025  0.6 0.375 0  0.6 0.375 0.025  0.625 0.375 0  0.625 0.375 0.025  0.65 0.375 0  0.65 0.375 0.025  0.3 0.4 0.025  0.325 0.4 0  0.325 0.4 0.025  0.35 0.4 0  0.
[...]
<PointData  Scalars="f_153"> 
<DataArray  type="Float64"  Name="f_153"  format="ascii">1.0054915195014597e+02  1.0051678103236952e+02  1.0052408559574704e+02  1.0054868434158062e+02  1.0052408559574425e+02  1.0056450071533875e+02  1.0056450071533840e+02  1.0058150467274473e+02  1.0046820452226419e+02  1.0047264506200305e+02  1.0050313221337345e+02  1.0047264506200857e+02  1.0040690129845193e+02  1.0040927561365282e+02  1.0044315323772277e+02  1.0040927561364909e+02  1.0033875841304834e+02  1.0033986364157269e+02  1.0037654678674967e+02  1.0033986364157411e+02  1.0026757365580950e+02  1.0026784505393186e+02  1.0030666953969605e+02  1.0026784505393330e+02  1.0019587332477121e+02  1.0019555854559776e+02  1.0023607690048756e+02  1.0019555854559346e+02  1.0012544577525948e+02  1.0012470684245848e+02  1.0016660023994973e+02  1.0012470684245864e+02  1.0005759232031096e+02  1.0005654113301546e+02  1.0009956986663254e+02  1.0005654113301723e+02  9.9993272937070103e+01  9.9991989823694283e+01  1.0003596703941992e+02  9.9991989823697367e+01  9.9933200555369908e+01  9.9931744714127930e+01  9.9976520033793989e+01  9.9931744714127035e+01  9.9877905164965142e+01  9.9876320913858777e+01  9.9921769936452506e+01  9.9876320913857981e+01  9.9827779445014698e+01  9.9826100243729229e+01  9.9872117562038270e+01  9.9826100243729584e+01  9.9783112339018984e+01  9.9781363522107355e+01  9.9827857883726239e+01  9.9781363522105835e+01  9.9744114333631032e+01  9.9742315054741979e+01  9.9789205889735811e+01  9.9742315054741880e+01  9.9710936775320860e+01  9.9709101448302675e+01  9.9756316295603753e+01  9.9709101448303613e+01  9.9683686731708832e+01  9.9681826140374753e+01  9.9729298679206750e+01  9.9681826140376458e+01  9.9662438399661553e+01  9.9660560584649886e+01  9.9708229079458434e+01  9.9660560584648849e+01  9.9647241739991699e+01  9.9645352734320284e+01  9.9693158763241129e+01  9.9645352734320795e+01  9.9638128803513084e+01  9.9636233266458831e+01  9.9684120641161698e+01  9.9636233266458689e+01  9.9635118062261782e+01  9.9633219847974757e+01  9.9681133656193040e+01  9.9633219847975710e+01  1.0054179251983865e+02  1.0057711368384926e+02  1.0059242222155524e+02  1.0061650226887939e+02  1.0048390207187043e+02  1.0052964875489947e+02  1.0041580333247647e+02  1.0046932629944726e+02  1.0034322863678393e+02  1.0040316523870561e+02  1.0026902200420649e+02  1.0033387078473277e+02  1.0019517181813670e+02  1.0026390894420385e+02  1.0012318031252386e+02  1.0019505540259378e+02  1.0005417182090027e+02  1.0012861720867886e+02  9.9988992426195821e+01  1.0006556622284343e+02  9.9928277899519600e+01  1.0000662645363757e+02  9.9872503660617340e+01  9.9952337005335750e+01  9.9822022539509547e+01  9.9903097727617805e+01  9.9777093683445202e+01  9.9859203081081745e+01  9.9737904944783310e+01  9.9820867745194477e+01  9.9704590341625760e+01  9.9788246221247363e+01  9.9677243692679525e+01  9.9761447921606447e+01  9.9655929198987508e+01  9.9740548751602248e+01  9.9640689517560105e+01  9.9725599872385985e+01  9.9631551710629793e+01  9.9716634117595206e+01  9.9628531335349280e+01  9.9713670384284498e+01  9.9631634847644193e+01  9.9716716205249995e+01  1.0056650547140391e+02  1.0060946444635114e+02  1.0062568846482965e+02  1.0065522827665768e+02  1.0050113311553794e+02  1.0055754884117121e+02  1.0042673714986535e+02  1.0049406238920932e+02  1.0034946475071573e+02  1.0042607018129871e+02  1.0027179767617972e+02  1.0035569105337356e+02  1.0019538694771731e+02  1.0028513957373528e+02  1.0012148741212410e+02  1.0021600811742869e+02  1.0005104698026294e+02  1.0014949166075867e+02  9.9984788322101224e+01  1.0008649042591946e+02  9.9923259230751228e+01  1.0002768042212989e+02  9.9866871078115636e+01  9.9973567575600200e+01  9.9815929140096344e+01  9.9924528044175460e+01  9.9770656669489910e+01  9.9880838920100317e+01  9.9731214113436323e+01  9.9842701904130593e+01  9.9697714457947498e+01  9.9810261689630323e+01  9.9670235427481245e+01  9.9783620264765077e+01  9.9648829082429756e+01  9.9762847976400636e+01  9.9633529216722280e+01  9.9747991948953114e+01  9.9624356849798531e+01  9.9739082274520527e+01  9.9621324022219554e+01  9.9736136261162599e+01  9.9624436035152740e+01  9.9739160926911651e+01  1.0059563972605599e+02  1.0064467349206348e+02  1.0066164858570160e+02  1.0069576060275371e+02  1.0052291246565154e+02  1.0058743569876431e+02  1.0044157615822459e+02  1.0051928113469467e+02  1.0035863115785511e+02  1.0044788409628750e+02  1.0027651771147929e+02  1.0037505113236475e+02  1.0019667319811317e+02  1.0030278665902539e+02  1.0012013595468603e+02  1.0023248324732147e+02  1.0004767161993598e+02  1.0016518663067488e+02  9.9979861077700363e+01  1.0010168749069393e+02  9.9917143790578507e+01  1.0004258150917744e+02  9.9859848533509137e+01  9.9988315371023162e+01  9.9808217292813893e+01  9.9939220975135356e+01  9.9762424507585109e+01  9.9895541949871927e+01  9.9722592799429748e+01  9.9857454464787494e+01  9.9688805827794368e+01  9.9825083655359776e+01  9.9661118718709034e+01  9.9798516577479106e+01  9.9639566405269207e+01  9.9777812340122992e+01  9.9624170139912252e+01  9.9763009882371733e+01  9.9614942376866935e+01  9.9754133729121961e+01  9.9611890171069632e+01  9.9751197960330913e+01  9.9615017194560380e+01  9.9754208549818102e+01  1.0062719500392305e+02  1.0068113667691404e+02  1.0069866638721321e+02  1.0073656665673548e+02  1.0054766525862881e+02  1.0061860111296588e+02  1.0045937280353094e+02  1.0054524240647834e+02  1.0037032404994491e+02  1.0046955696616808e+02  1.0028315341162271e+02  1.0039332659930859e+02  1.0019923475667534e+02  1.0031846865350259e+02  1.0011946479054963e+02  1.0024622736657552e+02  1.0004445682360422e+02  1.0017750853366032e+02  9.9974656135768612e+01  1.0011298476494905e+02  9.9910389188104219e+01  1.0005315665694637e+02  9.9851893285726291e+01  9.9998395887758619e+01  9.9799337284197350e+01  9.9948975540858839e+01  9.9752837467555864e+01  9.9905093187380047e+01  9.9712470383136619e+01  9.9866888951314181e+01  9.9678283388028177e+01  9.9834459842813686e+01  9.9650303305604268e+01  9.9807871158864870e+01  9.9628543437961085e+01  9.9787165479137784e+01  9.9613009105349889e+01  9.9772369625356774e+01  9.9603701839791782e+01  9.9763499846073145e+01  9.9600622326934086e+01  9.9760565411014497e+01  9.9603772162368756e+01  9.9763570738298455e+01  1.0065972724103474e+02  1.0071774216350636e+02  1.0073560201712002e+02  1.0077665007477768e+02  1.0057407013022285e+02  1.0065022903257687e+02  1.0047914435977825e+02  1.0057163393727791e+02  1.0038394744096699e+02  1.0049127106535759e+02  1.0029144073899465e+02  1.0041108770349275e+02  1.0020305701987884e+02  1.0033302965181034e+02  1.0011963286615560e+02  1.0025826470111294e+02  1.0004167619681444e+02  1.0018759411061851e+02  9.9969519715716871e+01  1.0012158568892460e+02  9.9903385592047684e+01  1.0006064608379884e+02  9.9843420496462826e+01  1.0000506714420220e+02  9.9789717062087092e+01  9.9955055904048606e+01  9.9742328672129105e+01  9.9910756116093083e+01  9.9701280649732468e+01  9.9872264516191180e+01  9.9666579154536990e+01  9.9839643500172272e+01  9.9638218395670464e+01  9.9812931139356579e+01  9.9616186466150623e+01  9.9792149077534660e+01  9.9600469967284468e+01  9.9777308653272613e+01  9.9591057527203930e+01  9.9768415475494010e+01  9.9587942282191577e+01  9.9765472606288313e+01  9.9591123366337186e+01  9.9768482451488765e+01  9.9777447417510587e+01  1.0069220323261770e+02  1.0075365897988920e+02  1.0060108934333975e+02  1.0068157631011715e+02  1.0050000899765153e+02  1.0059796983257809e+02  1.0039886424038852e+02  1.0051286697706256e+02  1.0030099681690247e+02  1.0042848100339866e+02  1.0020797865031753e+02  1.0034686710659157e+02  1.0012065435327911e+02  1.0026918263229905e+02  1.0003947505308726e+02  1.0019616740551369e+02  9.9964691353655240e+01  1.0012830905150507e+02  9.9896438264018059e+01  1.0006593222410648e+02  9.9834780113799695e+01  1.0000925299358046e+02  9.9779736181582081e+01  9.9958411876827341e+01  9.9731296722502918e+01  9.9913496013569585e+01  9.9689434013176140e+01  9.9874554977422136e+01  9.9654110527846754e+01  9.9841612591749922e+01  9.9625285267439708e+01  9.9814676011982414e+01  9.9602918743846331e+01  9.9793742769925728e+01  9.9586976876336323e+01  9.9778806186097185e+01  9.9577433938069007e+01  9.9769859397072395e+01  9.9574274630844201e+01  9.9766898152955974e+01  9.9577495333424039e+01  9.9769922480780991e+01  9.9778937267756049e+01  9.9587104548522817e+01  1.0071203354080811e+02  1.0052122489354780e+02  1.0062376492465026e+02  1.0041447679496665e+02  1.0053406138240017e+02  1.0031140316882724e+02  1.0044544365887209e+02  1.0021375886982251e+02  1.0036012316980873e+02  1.0012244524821563e+02  1.0027929653636039e+02  1.0003789826674760e+02  1.0020368162348379e+02  9.9960317119007343e+01  1.0013371334995789e+02  9.9889770253163505e+01  1.0006965168286276e+02  9.9826252393024660e+01  1.0001164666722735e+02  9.9769716622658677e+01  9.9959776939445561e+01  9.9720093535675204e+01  9.9914074435800671e+01  9.9677303528990578e+01  9.9874541098048823e+01  9.9641265232525583e+01  9.9841160739549821e+01  9.9611901609297334e+01  9.9813907788400968e+01  9.9589144518208229e+01  9.9792753855604317e+01  9.9572938155998415e+01  9.9777672669580454e+01  9.9563241601472498e+01  9.9768643694325277e+01  9.9560030583734658e+01  9.9765654620524685e+01  9.9563298541168024e+01  9.9768702841488036e+01  9.9573057005515935e+01  9.9777795974179554e+01  1.0055454607419517e+02  1.0032225440710306e+02  1.0046181924967921e+02  1.0022012627218709e+02  1.0037279897896362e+02  1.0012486416488632e+02  1.0028875357033671e+02  1.0003692037319038e+02  1.0021040999711113e+02  9.9956469398058502e+01  1.0013817563125633e+02  9.9883533507904261e+01  1.0007226418163165e+02  9.9818052254796001e+01  1.0001277211993475e+02  9.9759922134849901e+01  9.9959723994781683e+01  9.9709020087843783e+01  9.9913100978491471e+01  9.9665218114490713e+01  9.9872859557578664e+01  9.9628392807205302e+01  9.9838944282448352e+01  9.9598431849885657e+01  9.9811296774468005e+01  9.9575238607001594e+01  9.9789862238148899e+01  9.9558735419323597e+01  9.9774594201419120e+01  9.9548865950303309e+01  9.9765457909150655e+01  9.9545596775541611e+01  9.9762432621334810e+01  9.9548918321731421e+01  9.9765512962220157e+01  9.9558845209232587e+01  9.9774709397531666e+01  9.9575416017368838e+01  9.9790047866108679e+01  1.0022680994664780e+02  1.0038482357937320e+02  1.0012774301041979e+02  1.0029759998419094e+02  1.0003647180784276e+02  1.0021650734219521e+02  9.9953167164399673e+01  1.0014194590095958e+02  9.9877823129476440e+01  1.0007410000669638e+02  9.9810338201216609e+01  1.0001302542749144e+02  9.9750562749656254e+01  9.9958701840545203e+01  9.9698327458714317e+01  9.9911065906290787e+01  9.9653460950782858e+01  9.9870032672318544e+01  9.9615801047349564e+01  9.9835509849359326e+01  9.9585202187938947e+01  9.9807407599440651e+01  9.9561540447220949e+01  9.9785645384262352e+01  9.9544716980441876e+01  9.9770156795582977e+01  9.9534660379329736e+01  9.9760892920627157e+01  9.9531328218063052e+01  9.9757824574220180e+01  9.9534707947903854e+01  9.9760943591531372e+01  9.9544817222168007e+01  9.9770263283519355e+01  9.9561703679015324e+01  9.9785818088887794e+01  9.9585444160156726e+01  9.9807662394377829e+01  1.0013090787189699e+02  1.0030582451486167e+02  1.0003645923122923e+02  1.0022205223245705e+02  9.9950393632841354e+01  1.0014518591302286e+02  9.9872691444392757e+01  1.0007539457276657e+02  9.9803222672717794e+01  1.0001270510260066e+02  9.9741801715063517e+01  9.9957061645159854e+01  9.9688220827115956e+01  9.9908363372224244e+01  9.9642271072169194e+01  9.9866488972356493e+01  9.9603755697720757e+01  9.9831312866454951e+01  9.9572498843036172e+01  9.9802716157626975e+01  9.9548351299498847e+01  9.9780594133038335e+01  9.9531194355058730e+01  9.9764861431369752e+01  9.9520942344135975e+01  9.9755455560696589e+01  9.9517544275361828e+01  9.9752339186071239e+01  9.9520984754040072e+01  9.9755501435406288e+01  9.9531284312796473e+01  9.9764958355477688e+01  9.9548499187796239e+01  9.9780752561009166e+01  9.9572720508199595e+01  9.9802952038839791e+01  1.0003678008401904e+02  1.0022707574220654e+02  9.9948110303717755e+01  1.0014799700318565e+02  9.9868160346397659e+01  1.0007631413939154e+02  9.9796782129142343e+01  1.0001203517362613e+02  9.9733763189797685e+01  9.9955077321764023e+01  9.9678864913070072e+01  9.9905309283276495e+01  9.9631846826949541e+01  9.9862578885842368e+01  9.9592482258891678e+01  9.9826731435154883e+01  9.9560568545301848e+01  9.9797622057074491e+01  9.9535933746240488e+01  9.9775124072879791e+01  9.9518441072287914e+01  9.9759134690641815e+01  9.9507991773031350e+01  9.9749578820933152e+01  9.9504526949202372e+01  9.9746411522090682e+01  9.9508028563870383e+01  9.9749619379511387e+01  9.9518519798805130e+01  9.9759220982046543e+01  9.9536064803933968e+01  9.9775266548325448e+01  9.9560767796732108e+01  9.9797836654660728e+01  9.9946267467061020e+01  1.0015043992997987e+02  9.9864231372157619e+01  1.0007697497101118e+02  9.9791065991797794e+01  1.0001118295560660e+02  9.9726539703575938e+01  9.9952961584813181e+01  9.9670389863705367e+01  9.9902155583767566e+01  9.9622350262165583e+01  9.9858587358444368e+01  9.9582169041758235e+01  9.9822077492602446e+01  9.9549620481508029e+01  9.9792458573361813e+01  9.9524512773360243e+01  9.9769584559159838e+01  9.9506693142375013e+01  9.9753337112708365e+01  9.9496051170259662e+01  9.9743629814607900e+01  9.9492520864697354e+01  9.9740410840822335e+01  9.9496081804049155e+01  9.9743664460973434e+01  9.9506759534712884e+01  9.9753411550611148e+01  9.9524625279018736e+01  9.9769709179907409e+01  9.9549794900424274e+01  9.9792649220580145e+01  9.9582426959530849e+01  9.9822355785000170e+01  9.9860893527951248e+01  1.0007745751777236e+02  9.9786104121138806e+01  1.0001027271657894e+02  9.9720198856816168e+01  9.9950878674686010e+01  9.9662896959697292e+01  9.9899101837948791e+01  9.9613911780816281e+01  9.9854744258949424e+01  9.9572970829235416e+01  9.9817606116859864e+01  9.9539829085824053e+01  9.9787501001200496e+01  9.9514277857151143e+01  9.9764266300075732e+01  9.9496150630512815e+01  9.9747770224356870e+01  9.9485326879725832e+01  9.9737916471470697e+01  9.9481734432154767e+01  9.9734647178592780e+01  9.9485350773655966e+01  9.9737944568266983e+01  9.9496203496481940e+01  9.9747831506654705e+01  9.9514369957015148e+01  9.9764371045630739e+01  9.9539976081070392e+01  9.9787664881703776e+01  9.9573194122522480e+01  9.9817850518654012e+01  9.9781912814526123e+01  1.0000939610941730e+02  9.9714789038120941e+01  9.9948954397880598e+01  9.9656463790450587e+01  9.9896304620000066e+01  9.9606634647469633e+01  9.9851233002539473e+01  9.9565012688772214e+01  9.9813523374216899e+01  9.9531337210479080e+01  9.9782973792672578e+01  9.9505385595499845e+01  9.9759407903972104e+01  9.9486979884059963e+01  9.9742682646966870e+01  9.9475991063536867e+01  9.9732693374635005e+01  9.9472341742596114e+01  9.9729377096003304e+01  9.9476007625235596e+01  9.9732714279923940e+01  9.9487018013022734e+01  9.9742729463781245e+01  9.9505455410110741e+01  9.9759490745951368e+01  9.9531454161082607e+01  9.9783108087429639e+01  9.9565197904323952e+01  9.9813730186832444e+01  9.9606915418281801e+01  9.9851539489026848e+01  9.9947283968542749e+01  9.9651148726873402e+01  9.9893885057479309e+01  9.9600599083318770e+01  9.9848197644682429e+01  9.9558393622372279e+01  9.9809992904498742e+01  9.9524259332678341e+01  9.9779056646425531e+01  9.9497962524913675e+01  9.9755201537132436e+01  9.9479316048682904e+01  9.9738275423725142e+01  9.9468184029261536e+01  9.9728166881075111e+01  9.9464484830865587e+01  9.9724808728162699e+01  9.9468192692403818e+01  9.9728179984770122e+01  9.9479338282510753e+01  9.9738306529868851e+01  9.9498008254706278e+01  9.9755260546745248e+01  9.9524343726595760e+01  9.9779158674235418e+01  9.9558537447526419e+01  9.9810158610194861e+01  9.9600829202136268e+01  9.9848453697763460e+01  9.9894264784635155e+01  9.9595865805507216e+01  9.9845748618857868e+01  9.9553189848198897e+01  9.9807141353717853e+01  9.9518684551668045e+01  9.9775889615167685e+01  9.9492107852297394e+01  9.9751797733571422e+01  9.9473265587962985e+01  9.9734706593745841e+01  9.9462016613430663e+01  9.9724499545314544e+01  9.9458276012110858e+01  9.9721106156395066e+01  9.9462016872499348e+01  9.9724504304263050e+01  9.9473270889943109e+01  9.9734720878120129e+01  9.9492127879296717e+01  9.9751831183691394e+01  9.9518734117930308e+01  9.9775956964576750e+01  9.9807262772948434e+01  9.9845950198231705e+01  9.9892249213788460e+01  9.9549457584712727e+01  9.9805062725879310e+01  9.9514679205103931e+01  9.9773577259629334e+01  9.9487895902190587e+01  9.9749309355344522e+01  9.9468908589429248e+01  9.9732094993151890e+01  9.9457572394615411e+01  9.9721813816552924e+01  9.9453800062101138e+01  9.9718393068775541e+01  9.9457563838242592e+01  9.9721809787783073e+01  9.9732091544392603e+01  9.9749315816680607e+01  9.9773607912543426e+01  9.9805137163757166e+01  9.9512288990237266e+01  9.9772191862738111e+01  9.9485378137804588e+01  9.9747814688917828e+01  9.9466300697291487e+01  9.9730523249990995e+01  9.9454909566294660e+01  9.9720194965534844e+01  9.9716755662604797e+01  9.9720181837663560e+01  9.9730501418425831e+01  9.9484584659113082e+01  9.9747359662365156e+01  9.9511540516206594e+01  9.9771775712983271e+01  9.9730039941398161e+01  9.9719693200339364e+01  9.9716244744910384e+01  9.9485525116234768e+01  9.9747959172117604e+01  9.9730660889209730e+01  1.0057711368384879e+02  1.0054179251983746e+02  1.0059242222155973e+02  1.0061650226888615e+02  1.0052964875489805e+02  1.0048390207186577e+02  1.0046932629944372e+02  1.0041580333247305e+02  1.0040316523870409e+02  1.0034322863678814e+02  1.0033387078473631e+02  1.0026902200420405e+02  1.0026390894420136e+02  1.0019517181813522e+02  1.0019505540259472e+02  1.0012318031252643e+02  1.0012861720867791e+02  1.0005417182089872e+02  1.0006556622284333e+02  9.9988992426201932e+01  1.0000662645363900e+02  9.9928277899516175e+01  9.9952337005335792e+01  9.9872503660618236e+01  9.9903097727618658e+01  9.9822022539509035e+01  9.9859203081083550e+01  9.9777093683446751e+01  9.9820867745193112e+01  9.9737904944785839e+01  9.9788246221245871e+01  9.9704590341623998e+01  9.9761447921607555e+01  9.9677243692679795e+01  9.9740548751602418e+01  9.9655929198986371e+01  9.9725599872387278e+01  9.9640689517563501e+01  9.9716634117595476e+01  9.9631551710629310e+01  9.9713670384284470e+01  9.9628531335350075e+01  1.0061661449071615e+02  1.0066237586819055e+02  1.0056812507977493e+02  1.0051081453457070e+02  1.0044813435746271e+02  1.0038196811841452e+02  1.0031476125609196e+02  1.0024828152232774e+02  1.0018388384753487e+02  1.0012258795635962e+02  1.0006515826642671e+02  1.0001216634811810e+02  9.9964037598170705e+01  9.9921086446361954e+01  9.9883543137100801e+01  9.9851574255367524e+01  9.9825298513525041e+01  9.9804798848649924e+01  9.9790131558772600e+01  9.9781332981779059e+01  9.9778424059693705e+01  9.9781413010249508e+01  1.0065907783483119e+02  1.0071111055823184e+02  1.0060610286421863e+02  1.0054775334749881e+02  1.0048544916396715e+02  1.0042029224805830e+02  1.0035435461127247e+02  1.0028919175600207e+02  1.0022607256686229e+02  1.0016597562159397e+02  1.0010964701219552e+02  1.0005765079168565e+02  1.0001040987188009e+02  9.9968238506790001e+01  9.9931367742181550e+01  9.9899965290987510e+01  9.9874151006560481e+01  9.9854008833595046e+01  9.9839595880440939e+01  9.9830949073713867e+01  9.9828089716121184e+01  9.9831026158380212e+01  1.0070321478723153e+02  1.0076073368031652e+02  1.0064457649363364e+02  1.0058287755174752e+02  1.0051880222556763e+02  1.0045286597211910e+02  1.0038678379727827e+02  1.0032185059336955e+02  1.0025917922577209e+02  1.0019964715402195e+02  1.0014393548413635e+02  1.0009256534677590e+02  1.0004593051052271e+02  1.0000432494359761e+02  9.996796525822522