<?xml version="1.0"?>
<VTKFile type="UnstructuredGrid"  version="0.1"  >
<UnstructuredGrid>
<Piece  NumberOfPoints="7537" NumberOfCells="38188">
<Points>
<DataArray  type="Float64"  NumberOfComponents="3"  format="ascii">0.65 0.375 0  0.675 0.375 0  0.675 0.4 0  0.675 0.4 0.025  0.65 0.4 0  0.7 0.4 0  0.7 0.4 0.025  0.725 0.375 0  0.75 0.375 0  0.75 0.4 0  0.75 0.4 0.025  0.725 0.4 0  0.775 0.375 0  0.775 0.4 0  0.775 0.4 0.025  0.8 0.4 0  0.8 0.4 0.025  0.6 0.4 0  0.625 0.4 0  0.625 0.425 0  0.625 0.425 0.025  0.6 0.425 0  0.65 0.425 0  0.65 0.425 0.025  0.675 0.425 0  0.675 0.425 0.025  0.7 0.425 0  0.7 0.425 0.025  0.725 0.425 0  0.725 0.425 0.025  0.75 0.425 0  0.75 0.425 0.025  0.775 0.425 0  0.775 0.425 0.025  0.8 0.425 0  0.8 0.425 0.025  0.825 0.4 0  0.825 0.425 0  0.825 0.425 0.025  0.85 0.4 0  0.85 0.425 0  0.85 0.425 0.025  0.875 0.4 0  0.875 0.425 0  0.875 0.425 0.025  0.9 0.4 0  0.9 0.425 0  0.9 0.425 0.025  0.925 0.425 0  0.925 0.425 0.025  0.525 0.425 0  0.55 0.425 0  0.55 0.45 0  0.55 0.45 0.025  0.525 0.45 0  0.575 0.425 0  0.575 0.45 0  0.575 0.45 0.025  0.6 0.45 0  0.6 0.45 0.025  0.625 0.45 0  0.625 0.45 0.025  0.65 0.45 0  0.65 0.45 0.025  0.675 0.45 0  0.675 0.45 0.025  0.7 0.45 0  0.7 0.45 0.025  0.725 0.45 0  0.725 0.45 0.025  0.75 0.45 0  0.75 0.45 0.025  0.775 0.45 0  0.775 0.45 0.025  0.8 0.45 0  0.8 0.45 0.025  0.825 0.45 0  0.825 0.45 0.025  0.85 0.45 0  0.85 0.45 0.025  0.875 0.45 0  0.875 0.45 0.025  0.9 0.45 0  0.9 0.45 0.025  0.925 0.45 0  0.925 0.45 0.025  0.95 0.45 0  0.95 0.45 0.025  0.475 0.45 0  0.5 0.45 0  0.5 0.475 0  0.5 0.475 0.025  0.475 0.475 0  0.525 0.475 0  0.525 0.475 0.025  0.55 0.475 0  0.55 0.475 0.025  0.575 0.475 0  0.575 0.475 0.025  0.6 0.475 0  0.6 0.475 0.025  0.625 0.475 0  0.625 0.475 0.025  0.65 0.475 0  0.65 0.475 0.025  0.675 0.475 0  0.675 0.475 0.025  0.7 0.475 0  0.7 0.475 0.025  0.725 0.475 0  0.725 0.475 0.025  0.75 0.475 0  0.75 0.475 0.025  0.775 0.475 0  0.775 0.475 0.025  0.8 0.475 0  0.8 0.475 0.025  0.825 0.475 0  0.825 0.475 0.025  0.85 0.475 0  0.85 0.475 0.025  0.875 0.475 0  0.875 0.475 0.025  0.9 0.475 0  0.9 0.475 0.025  0.925 0.475 0  0.925 0.475 0.025  0.95 0.475 0  0.95 0.475 0.025  0.975 0.45 0  0.975 0.475 0  0.975 0.475 0.025  0.975 0.45 0.025  1 0.45 0  1 0.475 0  1 0.475 0.025  0.425 0.475 0  0.45 0.475 0  0.45 0.5 0  0.45 0.5 0.025  0.425 0.5 0  0.475 0.5 0  0.475 0.5 0.025  0.5 0.5 0  0.5 0.5 0.025  0.525 0.5 0  0.525 0.5 0.025  0.55 0.5 0  0.55 0.5 0.025  0.575 0.5 0  0.575 0.5 0.025  0.6 0.5 0  0.6 0.5 0.025  0.625 0.5 0  0.625 0.5 0.025  0.65 0.5 0  0.65 0.5 0.025  0.675 0.5 0  0.675 0.5 0.025  0.7 0.5 0  0.7 0.5 0.025  0.725 0.5 0  0.725 0.5 0.025  0.75 0.5 0  0.75 0.5 0.025  0.775 0.5 0  0.775 0.5 0.025  0.8 0.5 0  0.8 0.5 0.025  0.825 0.5 0  0.825 0.5 0.025  0.85 0.5 0  0.85 0.5 0.025  0.875 0.5 0  0.875 0.5 0.025  0.9 0.5 0  0.9 0.5 0.025  0.925 0.5 0  0.925 0.5 0.025  0.95 0.5 0  0.95 0.5 0.025  0.975 0.5 0  0.975 0.5 0.025  1 0.5 0  1 0.5 0.025  0.45 0.525 0  0.45 0.525 0.025  0.425 0.525 0  0.475 0.525 0  0.475 0.525 0.025  0.5 0.525 0  0.5 0.525 0.025  0.525 0.525 0  0.525 0.525 0.025  0.55 0.525 0  0.55 0.525 0.025  0.575 0.525 0  0.575 0.525 0.025  0.6 0.525 0  0.6 0.525 0.025  0.625 0.525 0  0.625 0.525 0.025  0.65 0.525 0  0.65 0.525 0.025  0.675 0.525 0  0.675 0.525 0.025  0.7 0.525 0  0.7 0.525 0.025  0.725 0.525 0  0.725 0.525 0.025  0.75 0.525 0  0.75 0.525 0.025  0.775 0.525 0  0.775 0.525 0.025  0.8 0.525 0  0.8 0.525 0.025  0.825 0.525 0  0.825 0.525 0.025  0.85 0.525 0  0.85 0.525 0.025  0.875 0.525 0  0.875 0.525 0.025  0.9 0.525 0  0.9 0.525 0.025  0.925 0.525 0  0.925 0.525 0.025  0.95 0.525 0  0.95 0.525 0.025  0.975 0.525 0  0.975 0.525 0.025  1 0.525 0  1 0.525 0.025  0.45 0.55 0  0.45 0.55 0.025  0.425 0.525 0.025  0.425 0.55 0  0.425 0.55 0.025  0.475 0.55 0  0.475 0.55 0.025  0.5 0.55 0  0.5 0.55 0.025  0.525 0.55 0  0.525 0.55 0.025  0.55 0.55 0  0.55 0.55 0.025  0.575 0.55 0  0.575 0.55 0.025  0.6 0.55 0  0.6 0.55 0.025  0.625 0.55 0  0.625 0.55 0.025  0.65 0.55 0  0.65 0.55 0.025  0.675 0.55 0  0.675 0.55 0.025  0.7 0.55 0  0.7 0.55 0.025  0.725 0.55 0  0.725 0.55 0.025  0.75 0.55 0  0.75 0.55 0.025  0.775 0.55 0  0.775 0.55 0.025  0.8 0.55 0  0.8 0.55 0.025  0.825 0.55 0  0.825 0.55 0.025  0.85 0.55 0  0.85 0.55 0.025  0.875 0.55 0  0.875 0.55 0.025  0.9 0.55 0  0.9 0.55 0.025  0.925 0.55 0  0.925 0.55 0.025  0.95 0.55 0  0.95 0.55 0.025  0.975 0.55 0  0.975 0.55 0.025  1 0.55 0  1 0.55 0.025  0.45 0.575 0  0.45 0.575 0.025  0.475 0.575 0  0.475 0.575 0.025  0.5 0.575 0  0.5 0.575 0.025  0.525 0.575 0  0.525 0.575 0.025  0.55 0.575 0  0.55 0.575 0.025  0.575 0.575 0  0.575 0.575 0.025  0.6 0.575 0  0.6 0.575 0.025  0.625 0.575 0  0.625 0.575 0.025  0.65 0.575 0  0.65 0.575 0.025  0.675 0.575 0  0.675 0.575 0.025  0.7 0.575 0  0.7 0.575 0.025  0.725 0.575 0  0.725 0.575 0.025  0.75 0.575 0  0.75 0.575 0.025  0.775 0.575 0  0.775 0.575 0.025  0.8 0.575 0  0.8 0.575 0.025  0.825 0.575 0  0.825 0.575 0.025  0.85 0.575 0  0.85 0.575 0.025  0.875 0.575 0  0.875 0.575 0.025  0.9 0.575 0  0.9 0.575 0.025  0.925 0.575 0  0.925 0.575 0.025  0.95 0.575 0  0.95 0.575 0.025  0.975 0.575 0  0.975 0.575 0.025  1 0.575 0  1 0.575 0.025  0.475 0.6 0  0.475 0.6 0.025  0.5 0.6 0  0.5 0.6 0.025  0.525 0.6 0  0.525 0.6 0.025  0.55 0.6 0  0.55 0.6 0.025  0.575 0.6 0  0.575 0.6 0.025  0.6 0.6 0  0.6 0.6 0.025  0.625 0.6 0  0.625 0.6 0.025  0.65 0.6 0  0.65 0.6 0.025  0.675 0.6 0  0.675 0.6 0.025  0.7 0.6 0  0.7 0.6 0.025  0.725 0.6 0  0.725 0.6 0.025  0.75 0.6 0  0.75 0.6 0.025  0.775 0.6 0  0.775 0.6 0.025  0.8 0.6 0  0.8 0.6 0.025  0.825 0.6 0  0.825 0.6 0.025  0.85 0.6 0  0.85 0.6 0.025  0.875 0.6 0  0.875 0.6 0.025  0.9 0.6 0  0.9 0.6 0.025  0.925 0.6 0  0.925 0.6 0.025  0.95 0.6 0  0.95 0.6 0.025  0.975 0.6 0  0.975 0.6 0.025  1 0.6 0  1 0.6 0.025  0.5 0.625 0  0.5 0.625 0.025  0.475 0.625 0.025  0.525 0.625 0  0.525 0.625 0.025  0.55 0.625 0  0.55 0.625 0.025  0.575 0.625 0  0.575 0.625 0.025  0.6 0.625 0  0.6 0.625 0.025  0.625 0.625 0  0.625 0.625 0.025  0.65 0.625 0  0.65 0.625 0.025  0.675 0.625 0  0.675 0.625 0.025  0.7 0.625 0  0.7 0.625 0.025  0.725 0.625 0  0.725 0.625 0.025  0.75 0.625 0  0.75 0.625 0.025  0.775 0.625 0  0.775 0.625 0.025  0.8 0.625 0  0.8 0.625 0.025  0.825 0.625 0  0.825 0.625 0.025  0.85 0.625 0  0.85 0.625 0.025  0.875 0.625 0  0.875 0.625 0.025  0.9 0.625 0  0.9 0.625 0.025  0.925 0.625 0  0.925 0.625 0.025  0.95 0.625 0  0.95 0.625 0.025  0.975 0.625 0  0.975 0.625 0.025  1 0.625 0  1 0.625 0.025  0.525 0.65 0  0.525 0.65 0.025  0.5 0.65 0  0.5 0.65 0.025  0.55 0.65 0  0.55 0.65 0.025  0.575 0.65 0  0.575 0.65 0.025  0.6 0.65 0  0.6 0.65 0.025  0.625 0.65 0  0.625 0.65 0.025  0.65 0.65 0  0.65 0.65 0.025  0.675 0.65 0  0.675 0.65 0.025  0.7 0.65 0  0.7 0.65 0.025  0.725 0.65 0  0.725 0.65 0.025  0.75 0.65 0  0.75 0.65 0.025  0.775 0.65 0  0.775 0.65 0.025  0.8 0.65 0  0.8 0.65 0.025  0.825 0.65 0  0.825 0.65 0.025  0.85 0.65 0  0.85 0.65 0.025  0.875 0.65 0  0.875 0.65 0.025  0.9 0.65 0  0.9 0.65 0.025  0.925 0.65 0  0.925 0.65 0.025  0.95 0.65 0  0.95 0.65 0.025  0.975 0.65 0  0.975 0.65 0.025  1 0.65 0  1 0.65 0.025  0.525 0.675 0  0.525 0.675 0.025  0.5 0.675 0  0.5 0.675 0.025  0.55 0.675 0  0.55 0.675 0.025  0.575 0.675 0  0.575 0.675 0.025  0.6 0.675 0  0.6 0.675 0.025  0.625 0.675 0  0.625 0.675 0.025  0.65 0.675 0  0.65 0.675 0.025  0.675 0.675 0  0.675 0.675 0.025  0.7 0.675 0  0.7 0.675 0.025  0.725 0.675 0  0.725 0.675 0.025  0.75 0.675 0  0.75 0.675 0.025  0.775 0.675 0  0.775 0.675 0.025  0.8 0.675 0  0.8 0.675 0.025  0.825 0.675 0  0.825 0.675 0.025  0.85 0.675 0  0.85 0.675 0.025  0.875 0.675 0  0.875 0.675 0.025  0.9 0.675 0  0.9 0.675 0.025  0.925 0.675 0  0.925 0.675 0.025  0.95 0.675 0  0.95 0.675 0.025  0.975 0.675 0  0.975 0.675 0.025  1 0.675 0  1 0.675 0.025  0.525 0.7 0.025  0.55 0.7 0  0.55 0.7 0.025  0.575 0.7 0  0.575 0.7 0.025  0.6 0.7 0  0.6 0.7 0.025  0.625 0.7 0  0.625 0.7 0.025  0.65 0.7 0  0.65 0.7 0.025  0.675 0.7 0  0.675 0.7 0.025  0.7 0.7 0  0.7 0.7 0.025  0.725 0.7 0  0.725 0.7 0.025  0.75 0.7 0  0.75 0.7 0.025  0.775 0.7 0  0.775 0.7 0.025  0.8 0.7 0  0.8 0.7 0.025  0.825 0.7 0  0.825 0.7 0.025  0.85 0.7 0  0.85 0.7 0.025  0.875 0.7 0  0.875 0.7 0.025  0.9 0.7 0  0.9 0.7 0.025  0.925 0.7 0  0.925 0.7 0.025  0.95 0.7 0  0.95 0.7 0.025  0.975 0.7 0  0.975 0.7 0.025  1 0.7 0  1 0.7 0.025  0.575 0.725 0  0.575 0.725 0.025  0.6 0.725 0  0.6 0.725 0.025  0.625 0.725 0  0.625 0.725 0.025  0.65 0.725 0  0.65 0.725 0.025  0.675 0.725 0  0.675 0.725 0.025  0.7 0.725 0  0.7 0.725 0.025  0.725 0.725 0  0.725 0.725 0.025  0.75 0.725 0  0.75 0.725 0.025  0.775 0.725 0  0.775 0.725 0.025  0.8 0.725 0  0.8 0.725 0.025  0.825 0.725 0  0.825 0.725 0.025  0.85 0.725 0  0.85 0.725 0.025  0.875 0.725 0  0.875 0.725 0.025  0.9 0.725 0  0.9 0.725 0.025  0.925 0.725 0  0.925 0.725 0.025  0.95 0.725 0  0.95 0.725 0.025  0.975 0.725 0  0.975 0.725 0.025  1 0.725 0  1 0.725 0.025  0.6 0.75 0  0.6 0.75 0.025  0.575 0.75 0  0.625 0.75 0  0.625 0.75 0.025  0.65 0.75 0  0.65 0.75 0.025  0.675 0.75 0  0.675 0.75 0.025  0.7 0.75 0  0.7 0.75 0.025  0.725 0.75 0  0.725 0.75 0.025  0.75 0.75 0  0.75 0.75 0.025  0.775 0.75 0  0.775 0.75 0.025  0.8 0.75 0  0.8 0.75 0.025  0.825 0.75 0  0.825 0.75 0.025  0.85 0.75 0  0.85 0.75 0.025  0.875 0.75 0  0.875 0.75 0.025  0.9 0.75 0  0.9 0.75 0.025  0.925 0.75 0  0.925 0.75 0.025  0.95 0.75 0  0.95 0.75 0.025  0.975 0.75 0  0.975 0.75 0.025  1 0.75 0  1 0.75 0.025  0.6 0.775 0  0.6 0.775 0.025  0.625 0.775 0  0.625 0.775 0.025  0.65 0.775 0  0.65 0.775 0.025  0.675 0.775 0  0.675 0.775 0.025  0.7 0.775 0  0.7 0.775 0.025  0.725 0.775 0  0.725 0.775 0.025  0.75 0.775 0  0.75 0.775 0.025  0.775 0.775 0  0.775 0.775 0.025  0.8 0.775 0  0.8 0.775 0.025  0.825 0.775 0  0.825 0.775 0.025  0.85 0.775 0  0.85 0.775 0.025  0.875 0.775 0  0.875 0.775 0.025  0.9 0.775 0  0.9 0.775 0.025  0.925 0.775 0  0.925 0.775 0.025  0.95 0.775 0  0.95
[...]
<PointData  Scalars="f_153"> 
<DataArray  type="Float64"  Name="f_153"  format="ascii">9.9606915418281801e+01  9.9656874270392976e+01  9.9651498817069140e+01  9.9894264784635155e+01  9.9600829202136268e+01  9.9710855503778717e+01  9.9947828167368627e+01  9.9782717494628784e+01  9.9859217245122196e+01  9.9856913702658161e+01  1.0007912166406965e+02  9.9779222786174103e+01  9.9945140637086737e+01  9.9944203553771416e+01  1.0015720246283114e+02  1.0004125539989859e+02  1.0024363861749686e+02  9.9524343726595760e+01  9.9558537447526419e+01  9.9553289269768982e+01  9.9807262772948434e+01  9.9518734117930308e+01  9.9596041415943546e+01  9.9845950198231705e+01  9.9647279528265457e+01  9.9892249213788460e+01  9.9707322087047530e+01  9.9946405420051192e+01  9.9776501039233850e+01  1.0000866181882989e+02  9.9855135796355768e+01  1.0007923150030621e+02  9.9943504359432794e+01  1.0015826180684033e+02  1.0004176725412725e+02  1.0024576865916097e+02  1.0014813040082464e+02  1.0014997477499089e+02  1.0034158970388130e+02  1.0026436524405011e+02  1.0026764484159743e+02  1.0044513141284928e+02  1.0038985336461418e+02  1.0039463212863893e+02  1.0055565133989754e+02  1.0052089632744055e+02  1.0052720630737076e+02  1.0067025852489758e+02  1.0066939106068249e+02  1.0078952130885004e+02  9.9462016872499348e+01  9.9473270889943109e+01  9.9468896110196738e+01  9.9732091544392603e+01  9.9457563838242592e+01  9.9492127879296717e+01  9.9487888886963049e+01  9.9749315816680607e+01  9.9514692039118174e+01  9.9773607912543426e+01  9.9549510038569153e+01  9.9805137163757166e+01  9.9592596709304985e+01  9.9844110885397868e+01  9.9644247304054318e+01  9.9890765340230658e+01  9.9704786590208712e+01  9.9945352465512599e+01  9.9774552100205113e+01  1.0000812096580582e+02  9.9853867278866531e+01  1.0007928815516054e+02  9.9943011417782159e+01  1.0015900301860580e+02  1.0004214264358230e+02  1.0024727943398752e+02  1.0015130255190560e+02  1.0034394736701520e+02  1.0026999593373235e+02  1.0044839995777534e+02  1.0039804657366732e+02  1.0055986887403212e+02  1.0053171045984311e+02  1.0067543871587175e+02  1.0067488746677276e+02  1.0079560316945943e+02  1.0080096808559432e+02  1.0090220320350227e+02  9.9457572394615411e+01  9.9453800062101138e+01  9.9451116068527995e+01  9.9716755662604797e+01  9.9454909566294660e+01  9.9454891909041251e+01  9.9720181837663560e+01  9.9466269837688870e+01  9.9730501418425831e+01  9.9485343111858413e+01  9.9747793120804531e+01  9.9512263673212331e+01  9.9772184311209017e+01  9.9547238774382791e+01  9.9803847092205800e+01  9.9590525558620953e+01  9.9842992097152205e+01  9.9642422894365126e+01  9.9889859221436581e+01  9.9703259140931891e+01  9.9944704037288716e+01  9.9773374968367222e+01  1.0000777847458630e+02  9.9853096015801967e+01  1.0007930216672460e+02  9.9942702061049204e+01  1.0015942483305086e+02  1.0004234965425465e+02  1.0024815894125086e+02  1.0015207456851707e+02  1.0034532946512869e+02  1.0027137477229149e+02  1.0045032195581017e+02  1.0040005151040134e+02  1.0056235066607719e+02  1.0053436548502391e+02  1.0067849150679443e+02  1.0067810024099553e+02  1.0079917481188276e+02  1.0080490266061837e+02  1.0090632126962907e+02  1.0095843262042115e+02  1.0096219773397888e+02  1.0103430413377144e+02  1.0103006963053787e+02  1.0097458140212575e+02  1.0098024676707129e+02  1.0103403307420292e+02  9.9485378137804588e+01  9.9466300697291487e+01  9.9465474559464752e+01  9.9730039941398161e+01  9.9484584659113082e+01  9.9454062348025161e+01  9.9719693200339364e+01  9.9450258828867277e+01  9.9716244744910384e+01  9.9454035460564384e+01  9.9719670823147268e+01  9.9465425030382477e+01  9.9729999397616780e+01  9.9484521113250523e+01  9.9747309498974985e+01  9.9511476230037786e+01  9.9771729070820925e+01  9.9546498439309758e+01  9.9803431022242052e+01  9.9589845863671968e+01  9.9842626971363813e+01  9.9641818447264441e+01  9.9889557903293507e+01  9.9702745623099688e+01  9.9944480488069814e+01  9.9772968987533275e+01  1.0000764762771597e+02  9.9852814834711566e+01  1.0007927965870580e+02  9.9942562981152165e+01  1.0015952647449180e+02  1.0004236962342907e+02  1.0024840015967696e+02  1.0015226799188611e+02  1.0034572379150778e+02  1.0027175592218478e+02  1.0045088146077609e+02  1.0040062070585493e+02  1.0056307874098408e+02  1.0053514630700062e+02  1.0067939877713688e+02  1.0067900720326965e+02  1.0080021962304106e+02  1.0080617062760338e+02  1.0090759177720682e+02  1.0096294550673085e+02  1.0103538423014948e+02  1.0098286214457994e+02  1.0103630095850136e+02  9.9466440715073730e+01  9.9730660889209730e+01  9.9485525116234768e+01  9.9455041854042364e+01  9.9720324939775111e+01  9.9451239711558856e+01  9.9716876997292843e+01  9.9455005791647295e+01  9.9720293351968593e+01  9.9466372594191398e+01  9.9730601679270833e+01  9.9485433085021725e+01  9.9747880404454037e+01  9.9512338881359568e+01  9.9772256573939671e+01  9.9547296888825713e+01  9.9803901952154405e+01  9.9590563894964021e+01  9.9843026830502652e+01  9.9642438417817203e+01  9.9889870775165818e+01  9.9703248499940244e+01  9.9944689066686664e+01  9.9773334525034926e+01  1.0000773339436658e+02  9.9853021994982498e+01  1.0007922326982526e+02  9.9942590426504495e+01  1.0015930830734537e+02  1.0004219701054228e+02  1.0024800135852641e+02  1.0015187583398718e+02  1.0034512682375912e+02  1.0027113142415931e+02  1.0045007359211900e+02  1.0039974573910634e+02  1.0056204735525780e+02  1.0053404470628558e+02  1.0067815454460869e+02  1.0067760071152144e+02  1.0079873175280974e+02  1.0080476537211335e+02  1.0090600972129749e+02  1.0096067122064798e+02  1.0103330563738949e+02  1.0098241955636996e+02  1.0103539519702205e+02  9.9469187880870038e+01  9.9732369579538087e+01  9.9747959172117604e+01  9.9488189004049943e+01  9.9749597512581062e+01  9.9457836373233306e+01  9.9722073225359026e+01  9.9454046932907346e+01  9.9718635384393608e+01  9.9457791402159700e+01  9.9722032680143158e+01  9.9469101665657220e+01  9.9732292176308434e+01  9.9488069145748483e+01  9.9749490765795315e+01  9.9514843058888260e+01  9.9773753110780760e+01  9.9549627175284428e+01  9.9805247858381293e+01  9.9592674596652913e+01  9.9844181628098482e+01  9.9644279860252581e+01  9.9890790008752063e+01  9.9704767081145206e+01  9.9945324334614142e+01  9.9774473195898636e+01  1.0000803280557085e+02  9.9853721348967767e+01  1.0007913246602463e+02  9.9942790279895661e+01  1.0015877206284891e+02  1.0004183937468392e+02  1.0024696621873900e+02  1.0015090681803122e+02  1.0034354372527200e+02  1.0026951054938401e+02  1.0044790441243821e+02  1.0039743565491652e+02  1.0055926275812773e+02  1.0053106889612599e+02  1.0067476463190346e+02  1.0067388719882619e+02  1.0079471571631231e+02  1.0080069157554126e+02  1.0090157846820695e+02  1.0095537748648745e+02  1.0102806923964960e+02  1.0097891803895931e+02  1.0103131561078726e+02  9.9473682623301968e+01  9.9735116701666840e+01  9.9462411045586435e+01  9.9724887265416157e+01  9.9458645234123935e+01  9.9721468698864669e+01  9.9462357666557509e+01  9.9724838253157046e+01  9.9473579278758621e+01  9.9735022050839504e+01  9.9492398997391149e+01  9.9752094510913466e+01  9.9518962106303050e+01  9.9776176394786930e+01  9.9553467198494218e+01  9.9807431207500571e+01  9.9596161245346963e+01  9.9846059466684949e+01  9.9647332109391272e+01  9.9892290096489532e+01  9.9707297245726934e+01  9.9946367744032244e+01  9.9776387649382642e+01  1.0000853459489311e+02  9.9854922215632669e+01  1.0007900326830750e+02  9.9943178040813692e+01  1.0015792067717712e+02  1.0004131748123307e+02  1.0024530379896079e+02  1.0014938561456600e+02  1.0034098844688259e+02  1.0026692015688447e+02  1.0044439115927413e+02  1.0039371741683175e+02  1.0055474353148509e+02  1.0052624403476341e+02  1.0066924708134066e+02  1.0066788769711685e+02  1.0078818683392578e+02  1.0079396568150405e+02  1.0089431018334014e+02  1.0094707475823412e+02  1.0101968148785802e+02  1.0097236367589745e+02  1.0102406749238656e+02  9.9468706950118630e+01  9.9728681117755301e+01  9.9464974973710525e+01  9.9725290249510252e+01  9.9468645917554554e+01  9.9728624384369368e+01  9.9479749428442332e+01  9.9738708369488791e+01  9.9498370962185575e+01  9.9755613191015797e+01  9.9524650290804232e+01  9.9779454154914731e+01  9.9558778703754768e+01  9.9810387527567784e+01  9.9600994459142669e+01  9.9848605172126369e+01  9.9651575839206018e+01  9.9894326467578239e+01  9.9710830602318083e+01  9.9947786348950288e+01  9.9779080894297934e+01  1.0000921807038678e+02  9.9856638940068635e+01  1.0007882735856393e+02  9.9943778685485242e+01  1.0015675770295660e+02  1.0004066551481263e+02  1.0024302831214061e+02  1.0014735343236241e+02  1.0033748390226553e+02  1.0026340564972004e+02  1.0043956281585376e+02  1.0038863716754391e+02  1.0054852150586896e+02  1.0051961369213676e+02  1.0066163332634910e+02  1.0065963937140857e+02  1.0077917252506670e+02  1.0078461735976687e+02  1.0088422713749678e+02  1.0093578272838873e+02  1.0100815559646360e+02  1.0096277048151772e+02  1.0101366255242277e+02  9.9472950682562256e+01  9.9729975712918048e+01  9.9733331529960367e+01  9.9476571985375472e+01  9.9733268089071814e+01  9.9487531571512747e+01  9.9743231893875105e+01  9.9505910430351591e+01  9.9759933709465258e+01  9.9531841195524763e+01  9.9783481797973565e+01  9.9565505634255786e+01  9.9814023016979462e+01  9.9607130546725415e+01  9.9851737884504885e+01  9.9656981469400606e+01  9.9896833121764885e+01  9.9715353038595140e+01  9.9949530569049585e+01  9.9782555098003726e+01  1.0001005111924820e+02  9.9858890062082466e+01  1.0007859045168968e+02  9.9944626324639401e+01  1.0015528617806035e+02  1.0003993132626867e+02  1.0024015860357562e+02  1.0014486891148125e+02  1.0033306212770043e+02  1.0025903250736995e+02  1.0043346096251373e+02  1.0038226230886258e+02  1.0054064323167958e+02  1.0051124231640925e+02  1.0065197013570204e+02  1.0064919813040758e+02  1.0076771449781883e+02  1.0077269204077778e+02  1.0087136394731994e+02  1.0092153266582712e+02  1.0099351358333921e+02  1.0095016217451055e+02  1.0100012070342339e+02  9.9486024272796740e+01  9.9738606104690533e+01  9.9482459164607647e+01  9.9735360181867861e+01  9.9496818637488275e+01  9.9748434028902096e+01  9.9514917778585570e+01  9.9764905165084215e+01  9.9540445534785192e+01  9.9788119131655890e+01  9.9573571856270775e+01  9.9818211156910422e+01  9.9614509186223884e+01  9.9855347601363420e+01  9.9663506877288143e+01  9.9899719182274907e+01  9.9720842583278866e+01  9.9951530871468179e+01  9.9786809751027121e+01  1.0001098717628342e+02  9.9861696962021057e+01  1.0007826973867449e+02  9.9945763517067050e+01  1.0015350674382792e+02  1.0003917658083634e+02  1.0023671712985343e+02  1.0014200921640078e+02  1.0032776425606352e+02  1.0025388834270352e+02  1.0042614079104153e+02  1.0037468441170599e+02  1.0053117195464081e+02  1.0050121877234938e+02  1.0064032234798256e+02  1.0063664242649888e+02  1.0075387190347686e+02  1.0075825465110334e+02  1.0085577084757962e+02  1.0090437080527738e+02  1.0097578923656584e+02  1.0093457492122425e+02  1.0098347275674971e+02  9.9496861486545384e+01  9.9744431137250061e+01  9.9493357266892900e+01  9.9741234454022290e+01  9.9507474660432564e+01  9.9754112958973280e+01  9.9525265853951865e+01  9.9770334822944790e+01  9.9550348462730014e+01  9.9793186136269085e+01  9.9582878295610954e+01  9.9822788281610627e+01  9.9623050432108542e+01  9.9859290585266805e+01  9.9671094365820906e+01  9.9902864229633508e+01  9.9727266479994341e+01  9.9953693177164936e+01  9.9791839046043748e+01  1.0001196090810332e+02  9.9865081790723281e+01  1.0007783010614814e+02  9.9947240021775954e+01  1.0015141468989253e+02  1.0003847659316123e+02  1.0023272811605216e+02  1.0013887115217021e+02  1.0032164001938204e+02  1.0024808537986037e+02  1.0041767207175513e+02  1.0036602295029391e+02  1.0052018998957628e+02  1.0048966104809369e+02  1.0062677640305921e+02  1.0062207841382029e+02  1.0073772555240801e+02  1.0074139475326675e+02  1.0083751814462003e+02  1.0088436295829163e+02  1.0095503213807412e+02  1.0091606117972977e+02  1.0096376415382998e+02  9.9750487376574313e+01  9.9519332189546034e+01  9.9760019003721780e+01  9.9536797162219955e+01  9.9775983224717592e+01  9.9561406486324003e+01  9.9798457767883065e+01  9.9593299557076946e+01  9.9827548048208513e+01  9.9632651070591720e+01  9.9863383523297998e+01  9.9679666845180080e+01  9.9906112237151149e+01  9.9734577357878408e+01  9.9955892735142442e+01  9.9797628279981694e+01  1.0001288227413526e+02  9.9869064421881617e+01  1.0007721871642643e+02  9.9949110676500226e+01  1.0014899545285138e+02  1.0003791952515547e+02  1.0022821440044058e+02  1.0013557202145753e+02  1.0031474632615273e+02  1.0024176316826727e+02  1.0040813971749883e+02  1.0035642981466677e+02  1.0050780128632590e+02  1.0047672224250165e+02  1.0061144464004315e+02  1.0060564669990345e+02  1.0071938331176156e+02  1.0072223339365350e+02  1.0081670206738903e+02  1.0086160059949422e+02  1.0093131293600615e+02  1.0089469484348997e+02  1.0094105991391672e+02  9.9549320956329183e+01  9.9781558437026121e+01  9.9573444148939203e+01  9.9803657760652285e+01  9.9604680150022361e+01  9.9832234728594074e+01  9.9643180386755105e+01  9.9867396297976427e+01  9.9689123212830509e+01  9.9909263884499040e+01  9.9742708387819349e+01  9.9957966138357904e+01  9.9804149058792333e+01  1.0001362852064824e+02  9.9873658096164760e+01  1.0007635738391348e+02  9.9951431982275039e+01  1.0014621790217149e+02  1.0003760447810106e+02  1.0022319224042290e+02  1.0013224976498607e+02  1.0030714419705673e+02  1.0023509117421176e+02  1.0039764333526314e+02  1.0034609444255142e+02  1.0049413379001888e+02  1.0046259793744811e+02  1.0059447024182465e+02  1.0058753101107993e+02  1.0069898681932391e+02  1.0070093210629418e+02  1.0079345232228728e+02  1.0083620880328506e+02  1.0090473014467669e+02  1.0087057797937534e+02  1.0091545106678149e+02  9.9586250725305163e+01  9.9808451356413840e+01  9.9562610491419051e+01  9.9616830519208079e+01  9.9836535207814748e+01  9.9654475479679107e+01  9.9871043187641476e+01  9.9699332978644051e+01  9.9912066972209175e+01  9.9751567350822896e+01  9.9959701076045647e+01  9.9811353083581139e+01  1.0001403354322761e+02  9.9878863371684048e+01  1.0007513200318465e+02  9.9954256842224254e+01  1.0014302448737364e+02  1.0003763779389027e+02  1.0021766301129992e+02  1.0012906168388976e+02  1.0029889295576641e+02  1.0022827070954970e+02  1.0038629478859561e+02  1.0033524931602399e+02  1.0047934089902880e+02  1.0044753504330404e+02  1.0057603252096193e+02  1.0056796917553378e+02  1.0067671961701336e+02  1.0067770472696826e+02  1.0076794177740744e+02  1.0080835659562341e+02  1.0087541888157087e+02  1.0084384959852535e+02  1.0088706296666241e+02  9.9599577261213810e+01  9.9812436790243851e+01  9.9629523182943871e+01  9.9840069484907616e+01  9.9666336371118831e+01  9.9873972232683457e+01  9.9710130288663080e+01  9.9914204575873768e+01  9.9761029635186659e+01  9.9960823314766515e+01  9.9819164348104934e+01  1.0001387390781888e+02  9.9884659971044911e+01  1.0007337806072665e+02  9.9957626781383084e+01  1.0013931699113589e+02  1.0003812669456788e+02  1.0021160029302341e+02  1.0012618076377434e+02  1.0029004000978992e+02  1.0022153513942445e+02  1.0037421207440711e+02  1.0032417488224785e+02  1.0046360056734616e+02  1.0043184177778173e+02  1.0055635173304859e+02  1.0054726688247800e+02  1.0065281669263423e+02  1.0065283304444908e+02  1.0074039888691262e+02  1.0077827058288479e+02  1.0084356214848430e+02  1.0081469710768194e+02  1.0085606608141495e+02  9.9642489424832789e+01  9.9842379270915757e+01  9.9678521320963824e+01  9.9875752326773906e+01  9.9721307685973599e+01  9.9915280418791369e+01  9.9770930365631742e+01  9.9960980240227457e+01  9.9827469730751574e+01  1.0001285062529074e+02  9.9890996195971738e+01  1.0007086098639510e+02  9.9961560951458779e+01  1.0013493622163494e+02  1.0003916909396885e+02  1.0020493017337233e+02  1.0012378787449479e+02  1.0028060355153370e+02  1.0021514662963462e+02  1.0036150676264572e+02  1.0031320317146334e+02  1.0044710992619719e+02  1.0041589925170052e+02  1.0053569226009564e+02  1.0052581517131071e+02  1.0062757518867588e+02  1.0062668769982746e+02  1.0071112357426276e+02  1.0074625315998271e+02  1.0080940556850807e+02  1.0078337150641050e+02  1.0082269020361962e+02  9.9690742951923283e+01  9.9875857158122116e+01  9.9732610180502874e+01  9.9914800554743721e+01  9.9781056131097060e+01  9.9959719939178584e+01  9.9836108230893529e+01  1.0001056542570127e+02  9.9897775809018654e+01  1.0006724969863693e+02  9.9966041250075008e+01  1.0012963338757444e+02  1.0004083813141550e+02  1.0019750171230429e+02  1.0012205810851886e+02  1.0027054452653132e+02  1.0020938777914239e+02  1.0034826094556371e+02  1.0030271695773831e+02  1.0043007054461859e+02  1.0040016983031954e+02  1.0051435916318457e+02  1.0050410899979849e+02  1.0060136375116161e+02  1.0059975639616303e+02  1.0068050760138343e+02  1.0071270806484488e+02  1.0077327727464494e+02  1.0075020792324445e+02  1.0078724348870914e+02  9.9743730630054785e+01  9.9912149588525608e+01  9.9702666120550731e+01  9.9873644165707702e+01  9.9791137311983505e+01  9.9956464038248129e+01  9.9844859730504140e+01  1.0000648960032575e+02  9.9904842909914635e+01  1.0006208101549538e+02  9.9970993391310401e+01  1.0012303008028397e+02  1.0004316051791662e+02  1.0018904346737312e+02  1.0012113892053932e+02  1.0025972212978370e+02  1.0020454190741401e+02  1.0033448518690373e+02  1.0029313792554167e+02  1.0041265558515558e+02  1.0038520629011235e+02  1.0049268506385101e+02  1.0048277918388176e+02  1.0057463263314085e+02  1.0057268800656128e+02  1.0064906193655250e+02  1.0067817529277566e+02  1.0073561444601594e+02  1.0071565330340574e+02  1.0075013897624075e+02  9.9754307641767582e+01  9.9906557244435191e+01  9.9800842368903645e+01  9.9950470269561421e+01  9.9853434672769851e+01  9.9999921415315271e+01  9.9911965958019962e+01  1.0005471069937272e+02  9.9976264566575225e+01  1.0011456199976330e+02  1.0004608794667114e+02  1.0017909974592156e+02  1.0012111608440870e+02  1.0024782374455899e+02  1.0020085892422254e+02  1.0032004747059294e+02  1.0028490792858641e+02  1.0039495034708789e+02  1.0037164868289369e+02  1.0047098832030467e+02  1.0046259066459737e+02  1.0054789205394707e+02  1.0054632232797634e+02  1.0061743476257432e+02  1.0064338464398303e+02  1.0069700290075919e+02  1.0068031466178130e+02  1.0071193533740909e+02  9.9809776527867612e+01  9.9940775856307653e+01  9.9861467581418339e+01  9.9989923661722983e+01  9.9918824291244803e+01  1.0004424302335198e+02  9.9981600998055782e+01  1.0010339807900951e+02  1.0004946340452585e+02  1.0016693672435073e+02  1.0012196896018665e+02  1.0023425736754311e+02  1.0019850534028468e+02  1.0030455573668917e+02  1.0027843027019667e+02  1.0037682773298954e+02  1.0036016126273016e+02  1.0044945615741375e+02  1.0044448314837634e+02  1.0052168143137595e+02  1.0052187687573357e+02  1.0058649289995900e+02  1.0060939168790709e+02  1.0065825415403792e+02  1.0064499944548868e+02  1.0067338426643190e+02  9.9868518132476666e+01  9.9975216810396716e+01  9.9925001848811789e+01  1.0002941519090159e+02  9.9986630497016748e+01  1.0008831178131260e+02  1.0005298798112241e+02  1.0015139512445845e+02  1.0012351860239113e+02  1.0021798036207881e+02  1.0019748352231039e+02  1.0028715537819362e+02  1.0027396891879873e+02  1.0035772209942365e+02  1.0035140307920783e+02  1.0042795702755546e+02  1.0042959441807461e+02  1.0049643859610308e+02  1.0050073583940888e+02  1.0055712796806958e+02  1.0057741328261804e+02  1.0062035255108802e+02  1.0061082801958513e+02  1.0063558166360680e+02  9.9929992144297657e+01  1.0000837517790791e+02  9.9874082188868471e+01  9.9953963378679987e+01  9.9990856556496411e+01  1.0006744710406012e+02  1.0005619775251503e+02  1.0013063634595578e+02  1.0012537448075641e+02  1.0019721189077758e+02  1.0019753415588310e+02  1.0026619172034691e+02  1.0027153306349732e+02  1.0033624280744546e+02  1.0034579206342455e+02  1.0040555229535673e+02  1.0041880431874374e+02  1.004718856984419