<?xml version="1.0"?>
<VTKFile type="UnstructuredGrid"  version="0.1"  >
<UnstructuredGrid>
<Piece  NumberOfPoints="7448" NumberOfCells="37197">
<Points>
<DataArray  type="Float64"  NumberOfComponents="3"  format="ascii">0.625 0 0.35  0.65 0 0.35  0.65 0 0.375  0.65 0.025 0.375  0.625 0 0.375  0.675 0 0.35  0.675 0 0.375  0.675 0.025 0.375  0.7 0 0.35  0.7 0 0.375  0.7 0.025 0.375  0.725 0 0.35  0.725 0 0.375  0.725 0.025 0.375  0.75 0 0.35  0.75 0 0.375  0.75 0.025 0.375  0.775 0 0.375  0.775 0.025 0.375  0.65 0.025 0.4  0.65 0 0.4  0.625 0 0.4  0.675 0.025 0.4  0.675 0 0.4  0.7 0.025 0.4  0.7 0 0.4  0.725 0.025 0.4  0.725 0 0.4  0.75 0.025 0.4  0.75 0 0.4  0.775 0.025 0.4  0.775 0 0.4  0.8 0 0.375  0.8 0 0.4  0.8 0.025 0.4  0.825 0 0.375  0.825 0 0.4  0.825 0.025 0.4  0.85 0 0.375  0.85 0 0.4  0.85 0.025 0.4  0.875 0 0.4  0.875 0.025 0.4  0.675 0.05 0.4  0.7 0.05 0.4  0.725 0.05 0.4  0.75 0.05 0.4  0.775 0.05 0.4  0.8 0.05 0.4  0.65 0.025 0.425  0.65 0 0.425  0.675 0.025 0.425  0.675 0 0.425  0.7 0.025 0.425  0.7 0 0.425  0.725 0.025 0.425  0.725 0 0.425  0.75 0.025 0.425  0.75 0 0.425  0.775 0.025 0.425  0.775 0 0.425  0.8 0.025 0.425  0.8 0 0.425  0.825 0.025 0.425  0.825 0 0.425  0.85 0.025 0.425  0.85 0 0.425  0.875 0.025 0.425  0.875 0 0.425  0.9 0 0.4  0.9 0.025 0.4  0.9 0.025 0.425  0.9 0 0.425  0.925 0 0.4  0.925 0 0.425  0.925 0.025 0.425  0.95 0 0.4  0.95 0 0.425  0.95 0.025 0.425  0.975 0 0.4  0.975 0 0.425  0.975 0.025 0.425  1 0 0.425  1 0.025 0.425  0.675 0.05 0.425  0.7 0.05 0.425  0.725 0.05 0.425  0.75 0.05 0.425  0.775 0.05 0.425  0.8 0.05 0.425  0.825 0.05 0.425  0.85 0.05 0.425  0.875 0.05 0.425  0.9 0.05 0.425  0.925 0.05 0.425  0.7 0.075 0.4  0.7 0.075 0.425  0.725 0.075 0.4  0.725 0.075 0.425  0.75 0.075 0.4  0.75 0.075 0.425  0.775 0.075 0.4  0.775 0.075 0.425  0.8 0.075 0.425  0.825 0.075 0.425  0.725 0.1 0.425  0.75 0.1 0.425  0.775 0.1 0.425  0.8 0.1 0.425  0.675 0.025 0.45  0.675 0 0.45  0.65 0 0.45  0.7 0.025 0.45  0.7 0 0.45  0.725 0.025 0.45  0.725 0 0.45  0.75 0.025 0.45  0.75 0 0.45  0.775 0.025 0.45  0.775 0 0.45  0.8 0.025 0.45  0.8 0 0.45  0.825 0.025 0.45  0.825 0 0.45  0.85 0.025 0.45  0.85 0 0.45  0.875 0.025 0.45  0.875 0 0.45  0.9 0.025 0.45  0.9 0 0.45  0.925 0.025 0.45  0.925 0 0.45  0.95 0.025 0.45  0.95 0 0.45  0.975 0.025 0.45  0.975 0 0.45  1 0.025 0.45  1 0 0.45  0.7 0.05 0.45  0.725 0.05 0.45  0.75 0.05 0.45  0.775 0.05 0.45  0.8 0.05 0.45  0.825 0.05 0.45  0.85 0.05 0.45  0.875 0.05 0.45  0.9 0.05 0.45  0.925 0.05 0.45  0.95 0.05 0.425  0.95 0.05 0.45  0.975 0.05 0.45  1 0.05 0.45  0.725 0.075 0.45  0.75 0.075 0.45  0.775 0.075 0.45  0.8 0.075 0.45  0.825 0.075 0.45  0.85 0.075 0.45  0.875 0.075 0.45  0.9 0.075 0.45  0.925 0.075 0.45  0.95 0.075 0.45  0.975 0.075 0.45  0.75 0.1 0.45  0.775 0.1 0.45  0.8 0.1 0.45  0.825 0.1 0.45  0.85 0.1 0.45  0.775 0.125 0.425  0.775 0.125 0.45  0.75 0.125 0.425  0.8 0.125 0.425  0.8 0.125 0.45  0.825 0.125 0.45  0.775 0.15 0.45  0.8 0.15 0.45  0.825 0.15 0.45  0.675 0.025 0.475  0.675 0 0.475  0.65 0 0.475  0.65 0.025 0.475  0.7 0.025 0.475  0.7 0 0.475  0.725 0.025 0.475  0.725 0 0.475  0.75 0.025 0.475  0.75 0 0.475  0.775 0.025 0.475  0.775 0 0.475  0.8 0.025 0.475  0.8 0 0.475  0.825 0.025 0.475  0.825 0 0.475  0.85 0.025 0.475  0.85 0 0.475  0.875 0.025 0.475  0.875 0 0.475  0.9 0.025 0.475  0.9 0 0.475  0.925 0.025 0.475  0.925 0 0.475  0.95 0.025 0.475  0.95 0 0.475  0.975 0.025 0.475  0.975 0 0.475  1 0.025 0.475  1 0 0.475  0.7 0.05 0.475  0.725 0.05 0.475  0.75 0.05 0.475  0.775 0.05 0.475  0.8 0.05 0.475  0.825 0.05 0.475  0.85 0.05 0.475  0.875 0.05 0.475  0.9 0.05 0.475  0.925 0.05 0.475  0.95 0.05 0.475  0.975 0.05 0.475  1 0.05 0.475  0.725 0.075 0.475  0.75 0.075 0.475  0.775 0.075 0.475  0.8 0.075 0.475  0.825 0.075 0.475  0.85 0.075 0.475  0.875 0.075 0.475  0.9 0.075 0.475  0.925 0.075 0.475  0.95 0.075 0.475  0.975 0.075 0.475  1 0.075 0.45  1 0.075 0.475  0.75 0.1 0.475  0.775 0.1 0.475  0.8 0.1 0.475  0.825 0.1 0.475  0.85 0.1 0.475  0.875 0.1 0.45  0.875 0.1 0.475  0.9 0.1 0.475  0.925 0.1 0.475  0.95 0.1 0.475  0.975 0.1 0.475  1 0.1 0.475  0.775 0.125 0.475  0.8 0.125 0.475  0.825 0.125 0.475  0.85 0.125 0.45  0.85 0.125 0.475  0.875 0.125 0.45  0.875 0.125 0.475  0.9 0.125 0.475  0.8 0.15 0.475  0.825 0.15 0.475  0.85 0.15 0.45  0.85 0.15 0.475  0.875 0.15 0.475  0.9 0.15 0.475  0.825 0.175 0.475  0.85 0.175 0.475  0.875 0.175 0.475  0.6 0 0.475  0.625 0 0.475  0.625 0 0.5  0.625 0.025 0.5  0.6 0 0.5  0.65 0.025 0.5  0.65 0 0.5  0.675 0.025 0.5  0.675 0 0.5  0.7 0.025 0.5  0.7 0 0.5  0.725 0.025 0.5  0.725 0 0.5  0.75 0.025 0.5  0.75 0 0.5  0.775 0.025 0.5  0.775 0 0.5  0.8 0.025 0.5  0.8 0 0.5  0.825 0.025 0.5  0.825 0 0.5  0.85 0.025 0.5  0.85 0 0.5  0.875 0.025 0.5  0.875 0 0.5  0.9 0.025 0.5  0.9 0 0.5  0.925 0.025 0.5  0.925 0 0.5  0.95 0.025 0.5  0.95 0 0.5  0.975 0.025 0.5  0.975 0 0.5  1 0.025 0.5  1 0 0.5  0.675 0.05 0.5  0.7 0.05 0.5  0.725 0.05 0.5  0.75 0.05 0.5  0.775 0.05 0.5  0.8 0.05 0.5  0.825 0.05 0.5  0.85 0.05 0.5  0.875 0.05 0.5  0.9 0.05 0.5  0.925 0.05 0.5  0.95 0.05 0.5  0.975 0.05 0.5  1 0.05 0.5  0.725 0.075 0.5  0.75 0.075 0.5  0.775 0.075 0.5  0.8 0.075 0.5  0.825 0.075 0.5  0.85 0.075 0.5  0.875 0.075 0.5  0.9 0.075 0.5  0.925 0.075 0.5  0.95 0.075 0.5  0.975 0.075 0.5  1 0.075 0.5  0.75 0.1 0.5  0.775 0.1 0.5  0.8 0.1 0.5  0.825 0.1 0.5  0.85 0.1 0.5  0.875 0.1 0.5  0.9 0.1 0.5  0.925 0.1 0.5  0.95 0.1 0.5  0.975 0.1 0.5  1 0.1 0.5  0.775 0.125 0.5  0.8 0.125 0.5  0.825 0.125 0.5  0.85 0.125 0.5  0.875 0.125 0.5  0.9 0.125 0.5  0.925 0.125 0.475  0.925 0.125 0.5  0.95 0.125 0.475  0.95 0.125 0.5  0.975 0.125 0.475  0.975 0.125 0.5  1 0.125 0.475  1 0.125 0.5  0.8 0.15 0.5  0.825 0.15 0.5  0.85 0.15 0.5  0.875 0.15 0.5  0.9 0.15 0.5  0.925 0.15 0.475  0.925 0.15 0.5  0.95 0.15 0.5  0.975 0.15 0.5  1 0.15 0.5  0.825 0.175 0.5  0.85 0.175 0.5  0.875 0.175 0.5  0.9 0.175 0.475  0.9 0.175 0.5  0.925 0.175 0.5  0.95 0.175 0.5  0.85 0.2 0.5  0.875 0.2 0.5  0.9 0.2 0.5  0.925 0.2 0.5  0.2 0 0.5  0.225 0 0.5  0.225 0 0.525  0.225 0.025 0.525  0.25 0 0.5  0.25 0.025 0.5  0.25 0.025 0.525  0.25 0 0.525  0.225 0.025 0.5  0.275 0 0.5  0.275 0.025 0.5  0.275 0.025 0.525  0.275 0 0.525  0.3 0 0.5  0.3 0 0.525  0.3 0.025 0.525  0.325 0 0.5  0.325 0 0.525  0.325 0.025 0.525  0.35 0 0.525  0.35 0.025 0.525  0.575 0 0.5  0.6 0 0.525  0.6 0.025 0.525  0.575 0 0.525  0.575 0.025 0.525  0.625 0.025 0.525  0.625 0 0.525  0.6 0.025 0.5  0.65 0.025 0.525  0.65 0 0.525  0.675 0.025 0.525  0.675 0 0.525  0.7 0.025 0.525  0.7 0 0.525  0.725 0.025 0.525  0.725 0 0.525  0.75 0.025 0.525  0.75 0 0.525  0.775 0.025 0.525  0.775 0 0.525  0.8 0.025 0.525  0.8 0 0.525  0.825 0.025 0.525  0.825 0 0.525  0.85 0.025 0.525  0.85 0 0.525  0.875 0.025 0.525  0.875 0 0.525  0.9 0.025 0.525  0.9 0 0.525  0.925 0.025 0.525  0.925 0 0.525  0.95 0.025 0.525  0.95 0 0.525  0.975 0.025 0.525  0.975 0 0.525  1 0.025 0.525  1 0 0.525  0.25 0.05 0.525  0.275 0.05 0.525  0.3 0.05 0.525  0.625 0.05 0.5  0.625 0.05 0.525  0.65 0.05 0.5  0.65 0.05 0.525  0.675 0.05 0.525  0.7 0.05 0.525  0.725 0.05 0.525  0.75 0.05 0.525  0.775 0.05 0.525  0.8 0.05 0.525  0.825 0.05 0.525  0.85 0.05 0.525  0.875 0.05 0.525  0.9 0.05 0.525  0.925 0.05 0.525  0.95 0.05 0.525  0.975 0.05 0.525  1 0.05 0.525  0.65 0.075 0.525  0.675 0.075 0.525  0.7 0.075 0.525  0.725 0.075 0.525  0.75 0.075 0.525  0.775 0.075 0.525  0.8 0.075 0.525  0.825 0.075 0.525  0.85 0.075 0.525  0.875 0.075 0.525  0.9 0.075 0.525  0.925 0.075 0.525  0.95 0.075 0.525  0.975 0.075 0.525  1 0.075 0.525  0.75 0.1 0.525  0.725 0.1 0.525  0.775 0.1 0.525  0.8 0.1 0.525  0.825 0.1 0.525  0.85 0.1 0.525  0.875 0.1 0.525  0.9 0.1 0.525  0.925 0.1 0.525  0.95 0.1 0.525  0.975 0.1 0.525  1 0.1 0.525  0.775 0.125 0.525  0.8 0.125 0.525  0.825 0.125 0.525  0.85 0.125 0.525  0.875 0.125 0.525  0.9 0.125 0.525  0.925 0.125 0.525  0.95 0.125 0.525  0.975 0.125 0.525  1 0.125 0.525  0.8 0.15 0.525  0.825 0.15 0.525  0.85 0.15 0.525  0.875 0.15 0.525  0.9 0.15 0.525  0.925 0.15 0.525  0.95 0.15 0.525  0.975 0.15 0.525  1 0.15 0.525  0.825 0.175 0.525  0.85 0.175 0.525  0.875 0.175 0.525  0.9 0.175 0.525  0.925 0.175 0.525  0.95 0.175 0.525  0.975 0.175 0.5  0.975 0.175 0.525  1 0.175 0.525  0.85 0.2 0.525  0.875 0.2 0.525  0.9 0.2 0.525  0.925 0.2 0.525  0.95 0.2 0.5  0.95 0.2 0.525  0.975 0.2 0.525  1 0.2 0.525  0.875 0.225 0.5  0.875 0.225 0.525  0.9 0.225 0.5  0.9 0.225 0.525  0.925 0.225 0.5  0.925 0.225 0.525  0.95 0.225 0.5  0.95 0.225 0.525  0.975 0.225 0.525  0.9 0.25 0.5  0.9 0.25 0.525  0.925 0.25 0.5  0.925 0.25 0.525  0.95 0.25 0.525  0.975 0.25 0.525  0.925 0.275 0.525  0.95 0.275 0.525  0.25 0.025 0.55  0.25 0 0.55  0.225 0 0.55  0.275 0.025 0.55  0.275 0 0.55  0.3 0.025 0.55  0.3 0 0.55  0.325 0.025 0.55  0.325 0 0.55  0.35 0.025 0.55  0.35 0 0.55  0.375 0 0.525  0.375 0 0.55  0.375 0.025 0.55  0.4 0 0.525  0.4 0 0.55  0.4 0.025 0.55  0.425 0 0.525  0.425 0 0.55  0.425 0.025 0.55  0.45 0 0.525  0.45 0 0.55  0.45 0.025 0.55  0.475 0 0.525  0.475 0 0.55  0.475 0.025 0.55  0.5 0 0.525  0.5 0 0.55  0.5 0.025 0.55  0.525 0 0.525  0.525 0 0.55  0.525 0.025 0.55  0.55 0 0.525  0.55 0 0.55  0.55 0.025 0.55  0.575 0.025 0.55  0.575 0 0.55  0.6 0.025 0.55  0.6 0 0.55  0.625 0.025 0.55  0.625 0 0.55  0.65 0.025 0.55  0.65 0 0.55  0.675 0.025 0.55  0.675 0 0.55  0.7 0.025 0.55  0.7 0 0.55  0.725 0.025 0.55  0.725 0 0.55  0.75 0.025 0.55  0.75 0 0.55  0.775 0.025 0.55  0.775 0 0.55  0.8 0.025 0.55  0.8 0 0.55  0.825 0.025 0.55  0.825 0 0.55  0.85 0.025 0.55  0.85 0 0.55  0.875 0.025 0.55  0.875 0 0.55  0.9 0.025 0.55  0.9 0 0.55  0.925 0.025 0.55  0.925 0 0.55  0.95 0.025 0.55  0.95 0 0.55  0.975 0.025 0.55  0.975 0 0.55  1 0.025 0.55  1 0 0.55  0.25 0.05 0.55  0.275 0.05 0.55  0.3 0.05 0.55  0.325 0.05 0.55  0.35 0.05 0.55  0.375 0.05 0.55  0.6 0.05 0.55  0.625 0.05 0.55  0.65 0.05 0.55  0.675 0.05 0.55  0.7 0.05 0.55  0.725 0.05 0.55  0.75 0.05 0.55  0.775 0.05 0.55  0.8 0.05 0.55 
[...]
<PointData  Scalars="f_163"> 
<DataArray  type="Float64"  Name="f_163"  format="ascii">9.9573194122522196e+01  9.9614238991159951e+01  9.9606915418280906e+01  9.9851539489027189e+01  9.9565197904322460e+01  9.9663362614648179e+01  9.9656874270393843e+01  9.9896744659093557e+01  9.9720845180520186e+01  9.9715371048725984e+01  9.9949569382401506e+01  9.9786982667768925e+01  9.9782717494630816e+01  1.0001023623195509e+02  9.9862065433099389e+01  9.9859217245121940e+01  1.0007894204169412e+02  9.9945140637087619e+01  1.0015582555404178e+02  9.9848453697764768e+01  9.9600829202136737e+01  9.9558537447525680e+01  9.9894264784635808e+01  9.9651498817069850e+01  9.9947828167370204e+01  9.9710855503778717e+01  1.0000937829989698e+02  9.9779222786175879e+01  1.0007912166407044e+02  9.9856913702658645e+01  1.0015720246283212e+02  9.9944203553772127e+01  1.0004065241123739e+02  1.0004125539989977e+02  1.0024363861749823e+02  1.0014582570421368e+02  1.0014813040082566e+02  1.0033827743498364e+02  1.0026022060189345e+02  1.0026436524404980e+02  1.0044054378687096e+02  1.0038985336461283e+02  1.0054972907567814e+02  1.0010688769856138e+02  1.0015470563077113e+02  1.0020958363109955e+02  1.0027167271643403e+02  1.0034106312523599e+02  1.0041772363785786e+02  9.9845950198231208e+01  9.9596041415943915e+01  9.9892249213789867e+01  9.9647279528267106e+01  9.9946405420052599e+01  9.9707322087048141e+01  1.0000866181883217e+02  9.9776501039235484e+01  1.0007923150030813e+02  9.9855135796357075e+01  1.0015826180684041e+02  9.9943504359433092e+01  1.0024576865916033e+02  1.0004176725412714e+02  1.0034158970388107e+02  1.0014997477499075e+02  1.0044513141284921e+02  1.0026764484159803e+02  1.0055565133989742e+02  1.0039463212863747e+02  1.0052089632744004e+02  1.0066298227280122e+02  1.0067025852489819e+02  1.0052720630737075e+02  1.0066164920595361e+02  1.0066939106068247e+02  1.0078952130885028e+02  1.0078518608099898e+02  1.0079438531930396e+02  1.0089525138630928e+02  1.0094190883081703e+02  1.0095166255765142e+02  1.0102269055065754e+02  1.0096588186103369e+02  1.0102000435063377e+02  1.0010695455246031e+02  1.0015527891999409e+02  1.0021076714351638e+02  1.0027357784249079e+02  1.0034380567137167e+02  1.0042141910389032e+02  1.0050624579735974e+02  1.0059769193423858e+02  1.0069530418390988e+02  1.0079616730789783e+02  1.0090347161691058e+02  1.0033478626701159e+02  1.0033723716704603e+02  1.0038340651856485e+02  1.0038638137381494e+02  1.0043845316143670e+02  1.0044205788710316e+02  1.0050004006844676e+02  1.0050438702732833e+02  1.0057340297069392e+02  1.0064906750725670e+02  1.0053881782287195e+02  1.0058820501510218e+02  1.0064377323013495e+02  1.0070571318776760e+02  9.9890765340230843e+01  9.9644247304053849e+01  9.9592596709304047e+01  9.9945352465514134e+01  9.9704786590210901e+01  1.0000812096580717e+02  9.9774552100205256e+01  1.0007928815516183e+02  9.9853867278867853e+01  1.0015900301860646e+02  9.9943011417782984e+01  1.0024727943398655e+02  1.0004214264358093e+02  1.0034394736701459e+02  1.0015130255190462e+02  1.0044839995777535e+02  1.0026999593373210e+02  1.0055986887403223e+02  1.0039804657366639e+02  1.0067543871587205e+02  1.0053171045984351e+02  1.0079560316946019e+02  1.0067488746677319e+02  1.0090220320350258e+02  1.0080096808559496e+02  1.0103006963053875e+02  1.0095843262042162e+02  1.0102859704721470e+02  1.0097458140212632e+02  1.0015562841783148e+02  1.0021156118565879e+02  1.0027489581716988e+02  1.0034572951014715e+02  1.0042402990368794e+02  1.0050961834817252e+02  1.0060189010862523e+02  1.0070036724132829e+02  1.0080211883901001e+02  1.0091025147300934e+02  1.0099592822669271e+02  1.0100355992463929e+02  1.0114239643323958e+02  1.0111487276127302e+02  1.0038843395291228e+02  1.0044457018986499e+02  1.0050743865941548e+02  1.0057707446908627e+02  1.0065343526755110e+02  1.0073617512644068e+02  1.0082529249209870e+02  1.0091865525552058e+02  1.0102118144734227e+02  1.0111260293761575e+02  1.0126569883295080e+02  1.0059184560212047e+02  1.0064789840604080e+02  1.0071040571957077e+02  1.0077957988479021e+02  1.0085546703979182e+02  1.0076517295889170e+02  1.0077031556023854e+02  1.0071513426591085e+02  1.0082159960585129e+02  1.0082727016188119e+02  1.0089123073146673e+02  1.0087734767053649e+02  1.0093023095212541e+02  1.0099073503756773e+02  9.9889859221436339e+01  9.9642422894365296e+01  9.9590525558621806e+01  9.9842992097153967e+01  9.9944704037289682e+01  9.9703259140933383e+01  1.0000777847458697e+02  9.9773374968366497e+01  1.0007930216672507e+02  9.9853096015802279e+01  1.0015942483305155e+02  9.9942702061049815e+01  1.0024815894124993e+02  1.0004234965425353e+02  1.0034532946512772e+02  1.0015207456851688e+02  1.0045032195581067e+02  1.0027137477229181e+02  1.0056235066607721e+02  1.0040005151040035e+02  1.0067849150679410e+02  1.0053436548502408e+02  1.0079917481188359e+02  1.0067810024099605e+02  1.0090632126962954e+02  1.0080490266061874e+02  1.0103430413377211e+02  1.0096219773397939e+02  1.0103403307420339e+02  1.0098024676707162e+02  1.0015581227816818e+02  1.0021201084700769e+02  1.0027565829585026e+02  1.0034685308728456e+02  1.0042556219128691e+02  1.0051160270015063e+02  1.0060436398172268e+02  1.0070335053058172e+02  1.0080563095194672e+02  1.0091423315082639e+02  1.0100809433767438e+02  1.0114699088699608e+02  1.0112070606205508e+02  1.0038963010023132e+02  1.0044604112363922e+02  1.0050923131731426e+02  1.0057923616989999e+02  1.0065601034315777e+02  1.0073920371723969e+02  1.0082879902002313e+02  1.0092266751015104e+02  1.0102564931718153e+02  1.0111763697813498e+02  1.0127080153536461e+02  1.0123354469994574e+02  1.0124001464818954e+02  1.0059398599944937e+02  1.0065032824463800e+02  1.0071317368434605e+02  1.0078273315773308e+02  1.0085905063917650e+02  1.0093871141282847e+02  1.0094275631399451e+02  1.0103257758709751e+02  1.0113517376554897e+02  1.0123074234828348e+02  1.0140066690821112e+02  1.0137193216289539e+02  1.0077334949185665e+02  1.0083061915693817e+02  1.0089494622136056e+02  1.0096269325976445e+02  1.0096682655071928e+02  1.0104295181445022e+02  1.0104754187205849e+02  1.0113662117818095e+02  1.0093413354307030e+02  1.0099499308080817e+02  1.0105979730876072e+02  1.0106446922975982e+02  1.0114442712852582e+02  1.0123504350592023e+02  1.0108456819885600e+02  1.0115323408657501e+02  1.0123404523728111e+02  9.9512263673213070e+01  9.9547238774384041e+01  9.9546498439309730e+01  9.9803431022241639e+01  9.9511476230036934e+01  9.9842626971365149e+01  9.9589845863672210e+01  9.9889557903294588e+01  9.9641818447264995e+01  9.9944480488069786e+01  9.9702745623100057e+01  1.0000764762771536e+02  9.9772968987533062e+01  1.0007927965870532e+02  9.9852814834711637e+01  1.0015952647449372e+02  9.9942562981152349e+01  1.0024840015967663e+02  1.0004236962342797e+02  1.0034572379150592e+02  1.0015226799188598e+02  1.0045088146077606e+02  1.0027175592218471e+02  1.0056307874098509e+02  1.0040062070585493e+02  1.0067939877713721e+02  1.0053514630700056e+02  1.0080021962304204e+02  1.0067900720327002e+02  1.0090759177720679e+02  1.0080617062760314e+02  1.0103538423014956e+02  1.0096294550673100e+02  1.0103630095850181e+02  1.0098286214458047e+02  1.0010688287739492e+02  1.0015586461924322e+02  1.0021214253915515e+02  1.0027588379456543e+02  1.0034718718678701e+02  1.0042601958839401e+02  1.0051219630805221e+02  1.0060510625615454e+02  1.0070424371644542e+02  1.0080669224202337e+02  1.0091540595062834e+02  1.0100952311328645e+02  1.0114814292501919e+02  1.0112314989634945e+02  1.0039000842531087e+02  1.0044650059654120e+02  1.0050978629548359e+02  1.0057990127283890e+02  1.0065679881950061e+02  1.0074012900024348e+02  1.0082986469074000e+02  1.0092389436255304e+02  1.0102698088383757e+02  1.0111923822755234e+02  1.0127209521564420e+02  1.0124275417984732e+02  1.0059466642277795e+02  1.0065109345688174e+02  1.0071403878440093e+02  1.0078371233331805e+02  1.0086015908565439e+02  1.0094399942569528e+02  1.0103398139546042e+02  1.0113667995565189e+02  1.0123254267052187e+02  1.0140212781930006e+02  1.0137500649770813e+02  1.0077431376465347e+02  1.0083167571596111e+02  1.0089611067229208e+02  1.0096811630376362e+02  1.0104896469351019e+02  1.0113820842935617e+02  1.0124211240910370e+02  1.0124380461829764e+02  1.0134426481809849e+02  1.0134627959286131e+02  1.0153080757640119e+02  1.0153245107840625e+02  1.0150653798508029e+02  1.0150998368548943e+02  1.0093537238917919e+02  1.0099633625828029e+02  1.0106593664099186e+02  1.0114602914854736e+02  1.0123681682516175e+02  1.0134537103063958e+02  1.0134725507276040e+02  1.0145769775294238e+02  1.0165938282128437e+02  1.0164277117324870e+02  1.0108608227508581e+02  1.0115487358336622e+02  1.0123582321661503e+02  1.0132766575725597e+02  1.0132962401427400e+02  1.0144591341184972e+02  1.0156474693705901e+02  1.0123573412332263e+02  1.0131863370215660e+02  1.0141630940242203e+02  1.0153884654426837e+02  1.0004115611983595e+02  9.9941720648527152e+01  9.9941891426934475e+01  1.0015858271810262e+02  9.9852263691881561e+01  1.0007869651576677e+02  1.0007876601855006e+02  9.9852595977783409e+01  1.0015865668042588e+02  9.9772633456430668e+01  1.0000727997739928e+02  1.0000747426089220e+02  9.9773106884250723e+01  9.9702568018009799e+01  9.9703162633285629e+01  9.9944572718168601e+01  9.9641751217092349e+01  9.9642447991599226e+01  9.9889852190548964e+01  9.9590631999467931e+01  9.9843069859482441e+01  9.9484521113250224e+01  9.9512338881358616e+01  9.9772256573940226e+01  9.9485433085021853e+01  9.9747880404453468e+01  9.9803901952153225e+01  9.9547296888824533e+01  9.9771729070820314e+01  9.9843026830503575e+01  9.9590563894963850e+01  9.9889870775165718e+01  9.9642438417815768e+01  9.9944689066686578e+01  9.9703248499942362e+01  1.0000773339436707e+02  9.9773334525034144e+01  1.0007922326982440e+02  9.9853021994982157e+01  1.0015930830734480e+02  9.9942590426503244e+01  1.0024800135852648e+02  1.0004219701054245e+02  1.0034512682375900e+02  1.0015187583398797e+02  1.0045007359211915e+02  1.0027113142415875e+02  1.0056204735525809e+02  1.0039974573910639e+02  1.0067815454460884e+02  1.0053404470628588e+02  1.0079873175281011e+02  1.0067760071152087e+02  1.0090600972129766e+02  1.0080476537211341e+02  1.0103330563738963e+02  1.0096067122064811e+02  1.0103539519702240e+02  1.0098241955637023e+02  1.0027504668219105e+02  1.0021164662213801e+02  1.0015563327152917e+02  1.0002998720430719e+02  1.0003015069580668e+02  1.0006499434697666e+02  1.0006509579540935e+02  1.0010690786108357e+02  1.0015579723946973e+02  1.0021196556968852e+02  1.0027557904617950e+02  1.0034673599124176e+02  1.0042540387908301e+02  1.0051139883896229e+02  1.0060411490784730e+02  1.0070304357302881e+02  1.0080529895592049e+02  1.0091376593887973e+02  1.0100784314957421e+02  1.0114584981735361e+02  1.0112220132651348e+02  1.0025963702710051e+02  1.0029660419653814e+02  1.0033985445438199e+02  1.0038958227111974e+02  1.0044595910645440e+02  1.0050911124571761e+02  1.0057907471844658e+02  1.0065580320261687e+02  1.0073895148591814e+02  1.0082848853703922e+02  1.0092233412050351e+02  1.0102517409938687e+02  1.0111740567179864e+02  1.0126957885673744e+02  1.0124176401192940e+02  1.0059390077880913e+02  1.0054390058518401e+02  1.0065020480440435e+02  1.0071300876374507e+02  1.0078252242267686e+02  1.0085879512553655e+02  1.0094244179532745e+02  1.0103224372224464e+02  1.0113468768771980e+02  1.0123053638096103e+02  1.0139935738626653e+02  1.0137394073110046e+02  1.0077322188301805e+02  1.0083045003080319e+02  1.0089473126490631e+02  1.0096656719496875e+02  1.0104722307525273e+02  1.0113628634760212e+02  1.0124161617551994e+02  1.0134408417882277e+02  1.0152940800841148e+02  1.0150883465156467e+02  1.0093395978055644e+02  1.0099477359193332e+02  1.0106420584586810e+02  1.0114410407348258e+02  1.0123470776930638e+02  1.0134486538915611e+02  1.0145530506520659e+02  1.0165605965837985e+02  1.0164153238674157e+02  1.0108434399771532e+02  1.0115296662202935e+02  1.0123371811294177e+02  1.0132732928186422e+02  1.0144332248395526e+02  1.0156215487153311e+02  1.0178054904226158e+02  1.0177694605676393e+02  1.0176894804397151e+02  1.0123365846907680e+02  1.0131635464194373e+02  1.0141383372004323e+02  1.0153605867534523e+02  1.0166596783518278e+02  1.0166317919678849e+02  1.0189052849623717e+02  1.0188919473545108e+02  1.0139457740931147e+02  1.0139213276242704e+02  1.0149655343757688e+02  1.0149390444298639e+02  1.0162534116699031e+02  1.0162236422102062e+02  1.0176035174205036e+02  1.0175737333991037e+02  1.0199582888339781e+02  1.0157009379410856e+02  1.0156728153959739e+02  1.0170488501822638e+02  1.0170172975730604e+02  1.0184406632701491e+02  1.0209224518442423e+02  1.0177381079929143e+02  1.0192282896577051e+02  1.0007880407138244e+02  9.9853423590991312e+01  9.9942239327195722e+01  1.0000788394554786e+02  9.9774355296196674e+01  9.9945301047897871e+01  9.9704773804644361e+01  9.9890848755528879e+01  9.9644366362677516e+01  9.9844287730744341e+01  9.9592805439544023e+01  9.9547394115274670e+01  9.9549774335482795e+01  9.9805373839284215e+01  9.9512442242916165e+01  9.9514984783151618e+01  9.9773877572073843e+01  9.9485525116236289e+01  9.9488189004050412e+01  9.9749597512582142e+01  9.9466440715077240e+01  9.9469187880873847e+01  9.9732369579539949e+01  9.9455041854039905e+01  9.9457836373230407e+01  9.9722073225357022e+01  9.9451239711555218e+01  9.9454046932904006e+01  9.9718635384392783e+01  9.9455005791649640e+01  9.9457791402158520e+01  9.9722032680142135e+01  9.9466372594195335e+01  9.9469101665661896e+01  9.9732292176312413e+01  9.9749490765794505e+01  9.9488069145747588e+01  9.9773753110781939e+01  9.9514843058887834e+01  9.9805247858381350e+01  9.9549627175283717e+01  9.9844181628098667e+01  9.9592674596653410e+01  9.9890790008751551e+01  9.9644279860251189e+01  9.9945324334612593e+01  9.9704767081145775e+01  1.0000803280557075e+02  9.9774473195897841e+01  1.0007913246602354e+02  9.9853721348965422e+01  1.0015877206284797e+02  9.9942790279895377e+01  1.0024696621873851e+02  1.0004183937468412e+02  1.0034354372527294e+02  1.0015090681803140e+02  1.0044790441243819e+02  1.0026951054938358e+02  1.0055926275812777e+02  1.0039743565491656e+02  1.0067476463190414e+02  1.0053106889612600e+02  1.0079471571631234e+02  1.0067388719882587e+02  1.0090157846820649e+02  1.0080069157554118e+02  1.0102806923964989e+02  1.0095537748648758e+02  1.0103131561078752e+02  1.0097891803895922e+02  1.0027433714736955e+02  1.0021126491942995e+02  1.0015552997037631e+02  1.0010698009552036e+02  1.0006542700466477e+02  1.0003067218948121e+02  1.0000241824038117e+02  1.0003056917696071e+02  1.0006535041436689e+02  1.0010695869992055e+02  1.0015560017724786e+02  1.0021147265962522e+02  1.0027473945156072e+02  1.0034549744171295e+02  1.0042371525545082e+02  1.0050921228678095e+02  1.0060139316277838e+02  1.0069975382890466e+02  1.0080145472713838e+02  1.0090931560658750e+02  1.0100305621022936e+02  1.0114011003604934e+02  1.0111785966426162e+02  1.0038804673454472e+02  1.0044390325739566e+02  1.0033873105340462e+02  1.0029579994981913e+02  1.0025904491630294e+02  1.0029583765180135e+02  1.0033887276927645e+02  1.0038834036112611e+02  1.0044440831667163e+02  1.0050720065324596e+02  1.0057675353853730e+02  1.0065302262413053e+02  1.0073567182512967e+02  1.0082467196432245e+02  1.0091798831458875e+02  1.0102022940615518e+02  1.0111213926531116e+02  1.0126324812630912e+02  1.0123704276142587e+02  1.0046037069807910e+02  1.0049826068773740e+02  1.0054195386099646e+02  1.0059167734525981e+02  1.0064765367048305e+02  1.0071007784063852e+02  1.0077916002256659e+02  1.0085495712757874e+02  1.0093808274675153e+02  1.0102736416339842e+02  1.0112919544952530e+02  1.0122472158827937e+02  1.0139234845787558e+02  1.0136873266839387e+02  1.0071965971761510e+02  1.0077006248823542e+02  1.0082693385226746e+02  1.0089080238553495e+02  1.0096217560456469e+02  1.0104231451494465e+02  1.0113085280004496e+02  1.0123554378225488e+02  1.0133767493343936e+02  1.0152166857029066e+02  1.0150308785268832e+02  1.0092988534277058e+02  1.0099029757920570e+02  1.0105927153301525e+02  1.0113864784588569e+02  1.0122871271853383e+02  1.0133819712638252e+02  1.0144827730259783e+02  1.0164756605463087e+02  1.0163521638904564e+02  1.0107934428609610e+02  1.0114750649063562e+02  1.0122772458794884e+02  1.0132077671252175e+02  1.0143605760604657e+02  1.0155450286549791e+02  1.0176769637348426e+02  1.0176205235510291e+02  1.0122769508955506e+02  1.0130984193507173e+02  1.0140673774797772e+02  1.0152820914149602e+02  1.0165491222070042e+02  1.0188053847974722e+02  1.0188172442953525e+02  1.0138512572678316e+02  1.0148628779178431e+02  1.0161395251645975e+02  1.0174851286139949e+02  1.0198512831625334e+02  1.0200109714334094e+02  1.0199306961660142e+02  1.0155917406045444e+02  1.0169278692663356e+02  1.0183464358128617e+02  1.0208087492033046e+02  1.0210393889126669e+02  1.0209538129918923e+02  1.0191288289695743e+02  1.0217943059819584e+02  1.0216744010765252e+02  1.0219730731745040e+02  1.0218825445071714e+02  1.0007880503537409e+02  9.9854754204106186e+01  9.9942778303227342e+01  1.0000849609115501e+02  9.9776379682342707e+01  9.9946436717977519e+01  9.9707395811923291e+01  9.9892424802035379e+01  9.9647494183694320e+01  9.9846226973738723e+01  9.9596353148877412e+01  9.9807605659608512e+01  9.9553662537929327e+01  9.9776337822122997e+01  9.9519140560861629e+01  9.9752227906817083e+01  9.9492545327441135e+01  9.9735116701666001e+01  9.9473682623304143e+01  9.9724887265414395e+01  9.9462411045584957e+01  9.9721468698862878e+01  9.9458645234121732e+01  9.9724838253158424e+01  9.9462357666560592e+01  9.9735022050841920e+01  9.9473579278760354e+01  9.9752094510913409e+01  9.9492398997389685e+01  9.9776176394786148e+01  9.9518962106302155e+01  9.9807431207501665e+01  9.9553467198494005e+01  9.9846059466685290e+01  9.9596161245346792e+01  9.9892290096486676e+01  9.9647332109390263e+01  9.9946367744031903e+01  9.9707297245725997e+01  1.0000853459489156e+02  9.9776387649380240e+01  1.0007900326830574e+02  9.9854922215630296e+01  1.0015792067717750e+02  9.9943178040812910e+01  1.0024530379895954e+02  1.0004131748123190e+02  1.0034098844688309e+02  1.0014938561456637e+02  1.0044439115927457e+02  1.0026692015688457e+02  1.0055474353148517e+02  1.0039371741683146e+02  1.0066924708134134e+02  1.0052624403476389e+02  1.0078818683392593e+02  1.0066788769711661e+02  1.0089431018334002e+02  1.0079396568150393e+02  1.0101968148785853e+02  1.0094707475823454e+02  1.0102406749238672e+02  1.0097236367589751e+02  1.0021054297843880e+02  1.0027307773129881e+02  1.0015526387571971e+02  1.0010709344063595e+02  1.0006584989990024e+02  1.0003134172132222e+02  1.0000338535687072e+02  9.9981817733585942e+01  9.9966504935505071e+01  9.9957348089407972e+01  9.9954287148408241e+01  9.9956161502269993e+01  9.9957303023696412e+01  9.9953122154900470e+01  9.9965339695122594e+01  9.9966418318629934e+01  9.9980722984667480e+01  9.9981696750336127e+01  1.0000324118283703e+02  1.0003119002961635e+02  1.0006571158150888e+02  1.0010699560807075e+02  1.0015524114671574e+02  1.0021063944288886e+02  1.0027334866946444e+02  1.0034346294365712e+02  1.0042095215999194e+02  1.0050564096145166e+02  1.0059694962979191e+02  1.0069438542274048e+02  1.0079517092123365e+02  1.0090206425213050e+02  1.0099516930555427e+02  1.0113092359643399e+02  1.0111012660467672e+02  1.0038606489100798e+02  1.0033714452042030e+02  1.0029453726493252e+02  1.0025807040328742e+02  1.0022756709386719e+02  1.0020286019950576e+02  1.0016214533876364e+02  1.0017020061474005e+02  1.0018370314139023e+02  1.0020274580255234e+02  1.0022745380883302e+02  1.0025798000232021e+02  1.0022830203187353e+02  1.0029449801646351e+02  1.0033719253995785e+02  1.0038624617245203e+02  1.0044182052464542e+02  1.0050403542946475e+02  1.0057292659605015e+02  1.0064845274099085e+02  1.0073029086691163e+02  1.0081841894572719e+02  1.009108619958064