<?xml version="1.0"?>
<VTKFile type="UnstructuredGrid"  version="0.1"  >
<UnstructuredGrid>
<Piece  NumberOfPoints="7630" NumberOfCells="38698">
<Points>
<DataArray  type="Float64"  NumberOfComponents="3"  format="ascii">0.15 0 0.225  0.175 0 0.225  0.175 0 0.25  0.175 0.025 0.25  0.15 0 0.25  0.2 0 0.225  0.2 0 0.25  0.2 0.025 0.25  0.225 0 0.25  0.225 0.025 0.25  0.175 0.025 0.275  0.175 0 0.275  0.15 0 0.275  0.2 0.025 0.275  0.2 0 0.275  0.225 0.025 0.275  0.225 0 0.275  0.25 0 0.25  0.25 0 0.275  0.25 0.025 0.275  0.275 0 0.275  0.275 0.025 0.275  0.2 0.05 0.275  0.225 0.05 0.275  0.25 0.05 0.275  0.175 0.025 0.3  0.175 0 0.3  0.15 0 0.3  0.2 0.025 0.3  0.2 0 0.3  0.225 0.025 0.3  0.225 0 0.3  0.25 0.025 0.3  0.25 0 0.3  0.275 0.025 0.3  0.275 0 0.3  0.3 0 0.275  0.3 0 0.3  0.3 0.025 0.3  0.325 0 0.275  0.325 0 0.3  0.325 0.025 0.3  0.35 0 0.275  0.35 0 0.3  0.35 0.025 0.3  0.375 0 0.275  0.375 0 0.3  0.375 0.025 0.3  0.4 0 0.275  0.4 0 0.3  0.4 0.025 0.3  0.425 0 0.275  0.425 0 0.3  0.425 0.025 0.3  0.45 0 0.275  0.45 0 0.3  0.45 0.025 0.3  0.475 0 0.3  0.475 0.025 0.3  0.2 0.05 0.3  0.225 0.05 0.3  0.25 0.05 0.3  0.275 0.05 0.275  0.275 0.05 0.3  0.3 0.05 0.3  0.225 0.075 0.3  0.2 0.075 0.3  0.2 0.075 0.275  0.25 0.075 0.3  0.275 0.075 0.3  0.3 0.075 0.3  0.225 0.1 0.3  0.175 0.025 0.325  0.175 0 0.325  0.15 0 0.325  0.2 0.025 0.325  0.2 0 0.325  0.225 0.025 0.325  0.225 0 0.325  0.25 0.025 0.325  0.25 0 0.325  0.275 0.025 0.325  0.275 0 0.325  0.3 0.025 0.325  0.3 0 0.325  0.325 0.025 0.325  0.325 0 0.325  0.35 0.025 0.325  0.35 0 0.325  0.375 0.025 0.325  0.375 0 0.325  0.4 0.025 0.325  0.4 0 0.325  0.425 0.025 0.325  0.425 0 0.325  0.45 0.025 0.325  0.45 0 0.325  0.475 0.025 0.325  0.475 0 0.325  0.5 0 0.3  0.5 0 0.325  0.5 0.025 0.325  0.525 0 0.325  0.525 0.025 0.325  0.2 0.05 0.325  0.225 0.05 0.325  0.25 0.05 0.325  0.275 0.05 0.325  0.3 0.05 0.325  0.325 0.05 0.3  0.325 0.05 0.325  0.35 0.05 0.3  0.35 0.05 0.325  0.375 0.05 0.3  0.375 0.05 0.325  0.4 0.05 0.325  0.425 0.05 0.325  0.45 0.05 0.325  0.475 0.05 0.325  0.5 0.05 0.325  0.225 0.075 0.325  0.2 0.075 0.325  0.25 0.075 0.325  0.275 0.075 0.325  0.3 0.075 0.325  0.325 0.075 0.3  0.325 0.075 0.325  0.35 0.075 0.325  0.375 0.075 0.325  0.4 0.075 0.325  0.225 0.1 0.325  0.25 0.1 0.3  0.25 0.1 0.325  0.275 0.1 0.325  0.3 0.1 0.325  0.325 0.1 0.325  0.35 0.1 0.325  0.25 0.125 0.3  0.25 0.125 0.325  0.275 0.125 0.325  0.275 0.15 0.325  0.175 0.025 0.35  0.175 0 0.35  0.15 0 0.35  0.2 0.025 0.35  0.2 0 0.35  0.225 0.025 0.35  0.225 0 0.35  0.25 0.025 0.35  0.25 0 0.35  0.275 0.025 0.35  0.275 0 0.35  0.3 0.025 0.35  0.3 0 0.35  0.325 0.025 0.35  0.325 0 0.35  0.35 0.025 0.35  0.35 0 0.35  0.375 0.025 0.35  0.375 0 0.35  0.4 0.025 0.35  0.4 0 0.35  0.425 0.025 0.35  0.425 0 0.35  0.45 0.025 0.35  0.45 0 0.35  0.475 0.025 0.35  0.475 0 0.35  0.5 0.025 0.35  0.5 0 0.35  0.525 0.025 0.35  0.525 0 0.35  0.55 0 0.325  0.55 0.025 0.325  0.55 0.025 0.35  0.55 0 0.35  0.575 0 0.325  0.575 0 0.35  0.575 0.025 0.35  0.6 0 0.35  0.6 0.025 0.35  0.2 0.05 0.35  0.225 0.05 0.35  0.25 0.05 0.35  0.275 0.05 0.35  0.3 0.05 0.35  0.325 0.05 0.35  0.35 0.05 0.35  0.375 0.05 0.35  0.4 0.05 0.35  0.425 0.05 0.35  0.45 0.05 0.35  0.475 0.05 0.35  0.5 0.05 0.35  0.525 0.05 0.35  0.55 0.05 0.35  0.575 0.05 0.35  0.225 0.075 0.35  0.25 0.075 0.35  0.275 0.075 0.35  0.3 0.075 0.35  0.325 0.075 0.35  0.35 0.075 0.35  0.375 0.075 0.35  0.4 0.075 0.35  0.425 0.075 0.325  0.425 0.075 0.35  0.45 0.075 0.325  0.45 0.075 0.35  0.475 0.075 0.35  0.5 0.075 0.35  0.525 0.075 0.35  0.225 0.1 0.35  0.25 0.1 0.35  0.275 0.1 0.35  0.3 0.1 0.35  0.325 0.1 0.35  0.35 0.1 0.35  0.375 0.1 0.35  0.4 0.1 0.325  0.4 0.1 0.35  0.425 0.1 0.325  0.425 0.1 0.35  0.45 0.1 0.35  0.475 0.1 0.35  0.25 0.125 0.35  0.275 0.125 0.35  0.3 0.125 0.325  0.3 0.125 0.35  0.325 0.125 0.325  0.325 0.125 0.35  0.35 0.125 0.325  0.35 0.125 0.35  0.375 0.125 0.35  0.425 0.125 0.35  0.4 0.125 0.35  0.45 0.125 0.35  0.275 0.15 0.35  0.3 0.15 0.35  0.325 0.15 0.35  0.35 0.15 0.35  0.375 0.15 0.35  0.3 0.175 0.35  0.175 0.025 0.375  0.175 0 0.375  0.15 0 0.375  0.2 0.025 0.375  0.2 0 0.375  0.225 0.025 0.375  0.225 0 0.375  0.25 0.025 0.375  0.25 0 0.375  0.275 0.025 0.375  0.275 0 0.375  0.3 0.025 0.375  0.3 0 0.375  0.325 0.025 0.375  0.325 0 0.375  0.35 0.025 0.375  0.35 0 0.375  0.375 0.025 0.375  0.375 0 0.375  0.4 0.025 0.375  0.4 0 0.375  0.425 0.025 0.375  0.425 0 0.375  0.45 0.025 0.375  0.45 0 0.375  0.475 0.025 0.375  0.475 0 0.375  0.5 0.025 0.375  0.5 0 0.375  0.525 0.025 0.375  0.525 0 0.375  0.55 0.025 0.375  0.55 0 0.375  0.575 0.025 0.375  0.575 0 0.375  0.6 0.025 0.375  0.6 0 0.375  0.625 0 0.35  0.625 0 0.375  0.625 0.025 0.375  0.65 0.025 0.375  0.2 0.05 0.375  0.225 0.05 0.375  0.25 0.05 0.375  0.275 0.05 0.375  0.3 0.05 0.375  0.325 0.05 0.375  0.35 0.05 0.375  0.375 0.05 0.375  0.4 0.05 0.375  0.425 0.05 0.375  0.45 0.05 0.375  0.475 0.05 0.375  0.5 0.05 0.375  0.525 0.05 0.375  0.55 0.05 0.375  0.575 0.05 0.375  0.6 0.05 0.35  0.6 0.05 0.375  0.625 0.05 0.375  0.225 0.075 0.375  0.25 0.075 0.375  0.275 0.075 0.375  0.3 0.075 0.375  0.325 0.075 0.375  0.35 0.075 0.375  0.375 0.075 0.375  0.4 0.075 0.375  0.425 0.075 0.375  0.45 0.075 0.375  0.475 0.075 0.375  0.5 0.075 0.375  0.525 0.075 0.375  0.55 0.075 0.35  0.55 0.075 0.375  0.575 0.075 0.35  0.575 0.075 0.375  0.6 0.075 0.375  0.625 0.075 0.375  0.25 0.1 0.375  0.225 0.1 0.375  0.275 0.1 0.375  0.3 0.1 0.375  0.325 0.1 0.375  0.35 0.1 0.375  0.375 0.1 0.375  0.4 0.1 0.375  0.425 0.1 0.375  0.45 0.1 0.375  0.475 0.1 0.375  0.5 0.1 0.35  0.5 0.1 0.375  0.525 0.1 0.375  0.55 0.1 0.375  0.575 0.1 0.375  0.6 0.1 0.375  0.25 0.125 0.375  0.275 0.125 0.375  0.3 0.125 0.375  0.325 0.125 0.375  0.35 0.125 0.375  0.375 0.125 0.375  0.4 0.125 0.375  0.425 0.125 0.375  0.45 0.125 0.375  0.475 0.125 0.375  0.5 0.125 0.375  0.525 0.125 0.375  0.275 0.15 0.375  0.3 0.15 0.375  0.325 0.15 0.375  0.35 0.15 0.375  0.375 0.15 0.375  0.4 0.15 0.35  0.4 0.15 0.375  0.425 0.15 0.35  0.425 0.15 0.375  0.45 0.15 0.35  0.45 0.15 0.375  0.475 0.15 0.375  0.3 0.175 0.375  0.325 0.175 0.35  0.325 0.175 0.375  0.35 0.175 0.35  0.35 0.175 0.375  0.375 0.175 0.35  0.375 0.175 0.375  0.4 0.175 0.375  0.425 0.175 0.375  0.45 0.175 0.375  0.475 0.175 0.375  0.325 0.2 0.35  0.325 0.2 0.375  0.3 0.2 0.35  0.35 0.2 0.35  0.35 0.2 0.375  0.375 0.2 0.375  0.4 0.2 0.375  0.325 0.225 0.35  0.325 0.225 0.375  0.3 0.225 0.35  0.35 0.225 0.375  0.375 0.225 0.375  0.325 0.25 0.375  0.35 0.25 0.375  0.175 0.025 0.4  0.175 0 0.4  0.2 0.025 0.4  0.2 0 0.4  0.225 0.025 0.4  0.225 0 0.4  0.25 0.025 0.4  0.25 0 0.4  0.275 0.025 0.4  0.275 0 0.4  0.3 0.025 0.4  0.3 0 0.4  0.325 0.025 0.4  0.325 0 0.4  0.35 0.025 0.4  0.35 0 0.4  0.375 0.025 0.4  0.375 0 0.4  0.4 0.025 0.4  0.4 0 0.4  0.425 0.025 0.4  0.425 0 0.4  0.45 0.025 0.4  0.45 0 0.4  0.475 0.025 0.4  0.475 0 0.4  0.5 0.025 0.4  0.5 0 0.4  0.525 0.025 0.4  0.525 0 0.4  0.55 0.025 0.4  0.55 0 0.4  0.575 0.025 0.4  0.575 0 0.4  0.6 0.025 0.4  0.6 0 0.4  0.625 0.025 0.4  0.625 0 0.4  0.65 0.025 0.4  0.2 0.05 0.4  0.225 0.05 0.4  0.25 0.05 0.4  0.275 0.05 0.4  0.3 0.05 0.4  0.325 0.05 0.4  0.35 0.05 0.4  0.375 0.05 0.4  0.4 0.05 0.4  0.425 0.05 0.4  0.45 0.05 0.4  0.475 0.05 0.4  0.5 0.05 0.4  0.525 0.05 0.4  0.55 0.05 0.4  0.575 0.05 0.4  0.6 0.05 0.4  0.625 0.05 0.4  0.65 0.05 0.4  0.675 0.05 0.4  0.225 0.075 0.4  0.25 0.075 0.4  0.275 0.075 0.4  0.3 0.075 0.4  0.325 0.075 0.4  0.35 0.075 0.4  0.375 0.075 0.4  0.4 0.075 0.4  0.425 0.075 0.4  0.45 0.075 0.4  0.475 0.075 0.4  0.5 0.075 0.4  0.525 0.075 0.4  0.55 0.075 0.4  0.575 0.075 0.4  0.6 0.075 0.4  0.625 0.075 0.4  0.65 0.075 0.4  0.25 0.1 0.4  0.225 0.1 0.4  0.275 0.1 0.4  0.3 0.1 0.4  0.325 0.1 0.4  0.35 0.1 0.4  0.375 0.1 0.4  0.4 0.1 0.4  0.425 0.1 0.4  0.45 0.1 0.4  0.475 0.1 0.4  0.5 0.1 0.4  0.525 0.1 0.4  0.55 0.1 0.4  0.575 0.1 0.4  0.6 0.1 0.4  0.625 0.1 0.4  0.65 0.1 0.4  0.25 0.125 0.4  0.275 0.125 0.4  0.3 0.125 0.4  0.325 0.125 0.4  0.35 0.125 0.4  0.375 0.125 0.4  0.4 0.125 0.4  0.425 0.125 0.4  0.45 0.125 0.4  0.475 0.125 0.4  0.5 0.125 0.4  0.525 0.125 0.4  0.55 0.125 0.375  0.55 0.125 0.4  0.575 0.125 0.375  0.575 0.125 0.4  0.6 0.125 0.375  0.6 0.125 0.4  0.625 0.125 0.4  0.275 0.15 0.4  0.3 0.15 0.4  0.325 0.15 0.4  0.35 0.15 0.4  0.375 0.15 0.4  0.4 0.15 0.4  0.425 0.15 0.4  0.45 0.15 0.4  0.475 0.15 0.4  0.5 0.15 0.375  0.5 0.15 0.4  0.525 0.15 0.4  0.55 0.15 0.4  0.575 0.15 0.4  0.6 0.15 0.4  0.625 0.15 0.4  0.3 0.175 0.4  0.325 0.175 0.4  0.35 0.175 0.4  0.375 0.175 0.4  0.4 0.175 0.4  0.425 0.175 0.4  0.45 0.175 0.4  0.475 0.175 0.4  0.5 0.175 0.375  0.5 0.175 0.4  0.525 0.175 0.4  0.325 0.2 0.4  0.3 0.2 0.4  0.35 0.2 0.4  0.375 0.2 0.4  0.4 0.2 0.4  0.425 0.2 0.375  0.425 0.2 0.4  0.45 0.2 0.375  0.45 0.2 0.4  0.475 0.2 0.375  0.475 0.2 0.4  0.5 0.2 0.4  0.525 0.2 0.4  0.35 0.225 0.4  0.325 0.225 0.4  0.375 0.225 0.4  0.4 0.225 0.4  0.425 0.225 0.4  0.45 0.225 0.4  0.475 0.225 0.4  0.5 0.225 0.4  0.35 0.25 0.4  0.325 0.25 0.4  0.375 0.25 0.375  0.375 0.25 0.4  0.4 0.25 0.4  0.35 0.275 0.375  0.35 0.275 0.4  0.325 0.275 0.375  0.375 0.275 0.4  0.4 0.275 0.4  0.35 0.3 0.4  0.375 0.3 0.4  0.2 0.025 0.425  0.2 0 0.425  0.225 0.025 0.425  0.225 0 0.425  0.25 0.025 0.425  0.25 0 0.425  0.275 0.025 0.425  0.275 0 0.425  0.3 0.025 0.425  0.3 0 0.425  0.325 0.025 0.425  0.325 0 0.425  0.35 0.025 0.425  0.35 0 0.425  0.375 0.025 0.425  0.375 0 0.425  0.4 0.025 0.425  0.4 0 0.425  0.425 0.025 0.425  0.425 0 0.425  0.45 0.025 0.425  0.45 0 0.425  0.475 0.025 0.425  0.475 0 0.425  0.5 0.025 0.425  0.5 0 0.425  0.525 0.025 0.425  0.525 0 0.425  0.55 0.025 0.425  0.55 0 0.425  0.575 0.025 0.425  0.575 0 0.425  0.6 0.025 0.425  0.6 0 0.425  0.625 0.025 0.425  0.625 0 0.425  0.65 0 0.425  0.65 0.025 0.425  0.2 0.05 0.425  0.225 0.05 0.425  0.25 0.05 0.425  0.275 0.05 0.425  0.3 0.05 0.425  0.325 0.05 0.425  0.35 0.05 0.425  0.375 0.05 0.425  0.4 0.05 0.425  0.425 0.05 0.425
[...]
<PointData  Scalars="f_153"> 
<DataArray  type="Float64"  Name="f_153"  format="ascii">1.0022012627217666e+02  1.0012486416488521e+02  1.0012774301042033e+02  1.0029759998418761e+02  1.0022680994663762e+02  1.0003692037318932e+02  1.0003647180783912e+02  1.0021650734219453e+02  9.9953167164399062e+01  1.0014194590095737e+02  1.0030582451485303e+02  1.0013090787189141e+02  1.0023355728057352e+02  1.0022205223244980e+02  1.0003645923122527e+02  1.0014518591302037e+02  9.9950393632844893e+01  9.9877823129478969e+01  9.9872691444392743e+01  1.0007539457277190e+02  9.9803222672712579e+01  1.0001270510259785e+02  1.0037992221744642e+02  1.0031163673223162e+02  1.0024940407563417e+02  1.0031338592629028e+02  1.0013419209338348e+02  1.0024014278631518e+02  1.0022707574220240e+02  1.0003678008401192e+02  1.0014799700318514e+02  9.9948110303722842e+01  1.0007631413939176e+02  9.9868160346396635e+01  1.0001203517362207e+02  9.9796782129140624e+01  9.9741801715068888e+01  9.9733763189798310e+01  9.9955077321764549e+01  9.9688220827117945e+01  9.9678864913075770e+01  9.9905309283283941e+01  9.9642271072171241e+01  9.9631846826950365e+01  9.9862578885844982e+01  9.9603755697720032e+01  9.9592482258896567e+01  9.9826731435160966e+01  9.9572498843036655e+01  9.9560568545304434e+01  9.9797622057074193e+01  9.9548351299502229e+01  9.9535933746241994e+01  9.9775124072882818e+01  9.9531194355064699e+01  9.9518441072292418e+01  9.9759134690644927e+01  9.9507991773031080e+01  9.9749578820934715e+01  1.0038944247867030e+02  1.0031928749539166e+02  1.0025548562494573e+02  1.0019331562317143e+02  1.0019810498163767e+02  1.0014712757057222e+02  1.0046628231902010e+02  1.0052863749914954e+02  1.0051483200677752e+02  1.0040958926809620e+02  1.0035858278803234e+02  1.0031323656051354e+02  1.0059277488636862e+02  1.0032023008754881e+02  1.0013744374611380e+02  1.0024637136237178e+02  1.0023158077001212e+02  1.0003733237296969e+02  1.0015043992997909e+02  9.9946267467064686e+01  1.0007697497101310e+02  9.9864231372156482e+01  1.0001118295560455e+02  9.9791065991797296e+01  9.9952961584810041e+01  9.9726539703572598e+01  9.9902155583769598e+01  9.9670389863708706e+01  9.9858587358449867e+01  9.9622350262168965e+01  9.9822077492608017e+01  9.9582169041761446e+01  9.9792458573366048e+01  9.9549620481513060e+01  9.9769584559163178e+01  9.9524512773363611e+01  9.9753337112710454e+01  9.9506693142376434e+01  9.9743629814610060e+01  9.9496051170259847e+01  9.9504526949204660e+01  9.9492520864699145e+01  9.9740410840822449e+01  9.9496081804051997e+01  9.9743664460976461e+01  1.0039773759614121e+02  1.0032580879779516e+02  1.0026049688779418e+02  1.0020185516752292e+02  1.0014984338436220e+02  1.0010248463009088e+02  1.0010436690343370e+02  1.0006408088770030e+02  1.0006530376669755e+02  1.0003181138305514e+02  1.0003252349388497e+02  1.0000590018002944e+02  9.9985321628418546e+01  9.9970695684087900e+01  9.9961954541384159e+01  9.9959057530405232e+01  1.0047666990284033e+02  1.0054055657518769e+02  1.0041870451504892e+02  1.0036666378105657e+02  1.0032049435365201e+02  1.0027349210662383e+02  1.0028010829347460e+02  1.0024540018919342e+02  1.0021626001032702e+02  1.0019258260525589e+02  1.0060681281408516e+02  1.0054218099731315e+02  1.0055514952320624e+02  1.0050893960556211e+02  1.0046804841275058e+02  1.0043234292180865e+02  1.0040169514277106e+02  1.0065640769515136e+02  1.0067297356297254e+02  1.0063170172133358e+02  1.0073761588739457e+02  1.0032630023977204e+02  1.0014052934608657e+02  1.0025207834435977e+02  1.0023555480621189e+02  1.0003802085800409e+02  1.0015254885910620e+02  9.9944811689539847e+01  1.0007745751777247e+02  9.9860893527949870e+01  1.0001027271657468e+02  9.9786104121132794e+01  9.9950878674690188e+01  9.9720198856815642e+01  9.9899101837946105e+01  9.9662896959697889e+01  9.9854744258952749e+01  9.9613911780821596e+01  9.9817606116863303e+01  9.9572970829237335e+01  9.9787501001207062e+01  9.9539829085832736e+01  9.9764266300081545e+01  9.9514277857155719e+01  9.9747770224355307e+01  9.9496150630512005e+01  9.9737916471472658e+01  9.9485326879725974e+01  9.9734647178591374e+01  9.9481734432153345e+01  9.9737944568270237e+01  9.9485350773659377e+01  9.9506759534710213e+01  9.9753411550609286e+01  9.9747831506654194e+01  9.9496203496479652e+01  9.9524625279016121e+01  9.9514369957014651e+01  9.9764371045630838e+01  9.9539976081069597e+01  9.9787664881702113e+01  1.0040486968256029e+02  1.0033131517580033e+02  1.0026460350494105e+02  1.0020477956199591e+02  1.0015178719898648e+02  1.0010551175848161e+02  1.0006580970315579e+02  1.0003252931467539e+02  1.0000552514668176e+02  9.9984668094531528e+01  9.9969852354012573e+01  9.9961000129260569e+01  9.9958064660046517e+01  9.9961031927960804e+01  9.9969921240073759e+01  9.9984784755292353e+01  1.0048540355642405e+02  1.0042623443430841e+02  1.0037319928207819e+02  1.0032622479990242e+02  1.0028519989540331e+02  1.0024999519828597e+02  1.0022047766258571e+02  1.0019652129501577e+02  1.0017427464783471e+02  1.0017801493459187e+02  1.0016125964489423e+02  1.0016486780173726e+02  1.0015701334883579e+02  1.0015441178606007e+02  1.0015705152779441e+02  1.0061860125050748e+02  1.0056589987354786e+02  1.0051885964443871e+02  1.0047732072329545e+02  1.0044112275745418e+02  1.0041011051488545e+02  1.0038413939246978e+02  1.0035510914113905e+02  1.0036308019093333e+02  1.0033897380417504e+02  1.0034682297087616e+02  1.0033528001985135e+02  1.0032838802911320e+02  1.0068673770007869e+02  1.0064477603574637e+02  1.0059540059523557e+02  1.0060796559319304e+02  1.0056384925468960e+02  1.0057605321791407e+02  1.0053686281974069e+02  1.0054882284927203e+02  1.0052609073935707e+02  1.0049353503061235e+02  1.0050770310202441e+02  1.0048349007605378e+02  1.0075361206782246e+02  1.0072076864462211e+02  1.0069253738110891e+02  1.0066861466148009e+02  1.0064875518828573e+02  1.0081804248399877e+02  1.0033154291010749e+02  1.0014333521309433e+02  1.0025712787524023e+02  1.0023897820063634e+02  1.0003876069186508e+02  1.0015434109103109e+02  9.9943690931775535e+01  1.0007781680672306e+02  9.9858129144439957e+01  1.0000939610941388e+02  9.9781912814523977e+01  9.9948954397881892e+01  9.9714789038116848e+01  9.9896304620002056e+01  9.9656463790449962e+01  9.9851233002542372e+01  9.9606634647472518e+01  9.9813523374221077e+01  9.9565012688776193e+01  9.9782973792678263e+01  9.9531337210486086e+01  9.9759407903977959e+01  9.9505385595501664e+01  9.9742682646963331e+01  9.9486979884058329e+01  9.9732693374638359e+01  9.9475991063540562e+01  9.9729377096002580e+01  9.9472341742593827e+01  9.9732714279926029e+01  9.9476007625237727e+01  9.9742729463779767e+01  9.9487018013021043e+01  9.9759490745952178e+01  9.9505455410113399e+01  9.9783108087431259e+01  9.9531454161082920e+01  9.9573194122522196e+01  9.9565197904322460e+01  9.9813730186830824e+01  9.9851539489027189e+01  1.0041087801520582e+02  1.0033588758096502e+02  1.0026792821503406e+02  1.0020704092123103e+02  1.0015315868593505e+02  1.0010615183106421e+02  1.0006585988186484e+02  1.0003211397805832e+02  1.0000475259423773e+02  9.9983632518494986e+01  9.9968636440989727e+01  9.9959678080946262e+01  9.9956705475351811e+01  9.9959702827034064e+01  9.9968691133284295e+01  9.9983727667725859e+01  1.0000570589315798e+02  1.0000490424781489e+02  1.0003234407584765e+02  1.0049262132394770e+02  1.0043236332976805e+02  1.0037841746039044e+02  1.0033069619704239e+02  1.0028907078760484e+02  1.0025339287357720e+02  1.0022351069847140e+02  1.0019928101364336e+02  1.0018057769093285e+02  1.0016729783953127e+02  1.0015936602720505e+02  1.0015673703290267e+02  1.0015939741411962e+02  1.0016494969884727e+02  1.0016736605081601e+02  1.0017815174727264e+02  1.0018069372015619e+02  1.0019946165320322e+02  1.0022377892089605e+02  1.0057467093680270e+02  1.0062832822167647e+02  1.0052685229081531e+02  1.0048469393160727e+02  1.0044801436868330e+02  1.0041663659968778e+02  1.0039039512052139e+02  1.0036914178569235e+02  1.0035275041711812e+02  1.0034112027189387e+02  1.0033417853641487e+02  1.0032610958270514e+02  1.0033188200368785e+02  1.0033421805435462e+02  1.0034120501620919e+02  1.0035289192910457e+02  1.0036935769314407e+02  1.0069798619493091e+02  1.0065535841710920e+02  1.0061803978721105e+02  1.0058575195898247e+02  1.0055825378972155e+02  1.0053533797230330e+02  1.0051682968501675e+02  1.0050258618513723e+02  1.0049249682126252e+02  1.0048648319697492e+02  1.0048449935742940e+02  1.0048653194091374e+02  1.0076659790273303e+02  1.0073334170815616e+02  1.0070482812926565e+02  1.0068072482866000e+02  1.0066075998092641e+02  1.0063276242938674e+02  1.0064471365092041e+02  1.0062048229534540e+02  1.0063241207992348e+02  1.0061179897670507e+02  1.0062372389653414e+02  1.0061855763585856e+02  1.0083291239138789e+02  1.0079287179258313e+02  1.0080753973882970e+02  1.0077175654420428e+02  1.0078632050327190e+02  1.0075437393927460e+02  1.0076890222305953e+02  1.0075500590624281e+02  1.0074441534538867e+02  1.0073696961564040e+02  1.0073255792698198e+02  1.0087909650169864e+02  1.0089592910064512e+02  1.0090180586547224e+02  1.0086029394299520e+02  1.0087708875776272e+02  1.0086180874217834e+02  1.0084974194159685e+02  1.0095300084098608e+02  1.0097178954562040e+02  1.0097380010915356e+02  1.0095485263034790e+02  1.0094131914673231e+02  1.0103667901966914e+02  1.0102121632740905e+02  1.0033591110719526e+02  1.0014576745417037e+02  1.0024182939227735e+02  1.0003947935344195e+02  1.0015582373160630e+02  9.9942857907270991e+01  1.0007808996724981e+02  9.9855918122250728e+01  1.0000862004845406e+02  9.9778499462970643e+01  9.9947283968545236e+01  9.9710344119163665e+01  9.9893885057476737e+01  9.9651148726871810e+01  9.9848197644686039e+01  9.9600599083322919e+01  9.9809992904503730e+01  9.9558393622376215e+01  9.9779056646430476e+01  9.9524259332684338e+01  9.9755201537139300e+01  9.9497962524916133e+01  9.9738275423724019e+01  9.9479316048676750e+01  9.9728166881077300e+01  9.9468184029265544e+01  9.9724808728164149e+01  9.9464484830867264e+01  9.9728179984770051e+01  9.9468192692403903e+01  9.9738306529868240e+01  9.9479338282509417e+01  9.9755260546747877e+01  9.9498008254708168e+01  9.9779158674236783e+01  9.9524343726597209e+01  9.9810158610191309e+01  9.9558537447525680e+01  9.9848453697764768e+01  1.0041578719436930e+02  1.0033958308214494e+02  1.0027056144189790e+02  1.0020876229327472e+02  1.0015411155333473e+02  1.0010646865978468e+02  1.0006566029146968e+02  1.0003150423661786e+02  1.0000382622198720e+02  9.9982471708542079e+01  9.9967314061913001e+01  9.9958260076576934e+01  9.9955253518461816e+01  9.9958277113559262e+01  9.9967353222059799e+01  9.9982543276864249e+01  1.0000394591294737e+02  1.0003169355726352e+02  1.0006594705257022e+02  1.0010688769856138e+02  1.0049842525421637e+02  1.0043723022985765e+02  1.0038249315446775e+02  1.0033411676139960e+02  1.0029195927425863e+02  1.0025585779712968e+02  1.0022564590536905e+02  1.0020116659686875e+02  1.0018228166776186e+02  1.0016887836645198e+02  1.0016087397669831e+02  1.0015821879852240e+02  1.0016089784058013e+02  1.0016893140418203e+02  1.0018237461950382e+02  1.0020131587914624e+02  1.0022587399818433e+02  1.0025619378888332e+02  1.0058164511547000e+02  1.0063613543832233e+02  1.0053313909146360e+02  1.0049042585860673e+02  1.0045330810736327e+02  1.0042159203187094e+02  1.0039509565057057e+02  1.0037365564839399e+02  1.0035713269261643e+02  1.0034541539016196e+02  1.0033842310538462e+02  1.0033610783766100e+02  1.0033845531022349e+02  1.0034548536381645e+02  1.0035725168848514e+02  1.0037384086527881e+02  1.0039537063294787e+02  1.0042198722801585e+02  1.0070693930300162e+02  1.0066371159910753e+02  1.0062592511959323e+02  1.0059328245459584e+02  1.0056552297538578e+02  1.0054242071824450e+02  1.0052378395901876e+02  1.0050945546108386e+02  1.0049931293084985e+02  1.0049326946699638e+02  1.0049127391898388e+02  1.0049331112886362e+02  1.0049260027208352e+02  1.0049940205253044e+02  1.0050275639206461e+02  1.0050960376219045e+02  1.0051708503293968e+02  1.0052400933139828e+02  1.0054274761260946e+02  1.0077687166459108e+02  1.0074322176067223e+02  1.0071442608855861e+02  1.0069012988554587e+02  1.0067004024644953e+02  1.0065391838150920e+02  1.0064157451220284e+02  1.0063286448390380e+02  1.0062768753552508e+02  1.0061686019433094e+02  1.0062598489959643e+02  1.0062773904723406e+02  1.0063297348375501e+02  1.0064175306645124e+02  1.0065418487290330e+02  1.0067041971638182e+02  1.0084462855146353e+02  1.0081903621887948e+02  1.0079768388815103e+02  1.0078019546629059e+02  1.0076627102700682e+02  1.0075567670129251e+02  1.0074823754329385e+02  1.0074383260299099e+02  1.0073111629060276e+02  1.0074239171434367e+02  1.0074389369602399e+02  1.0090915681250782e+02  1.0093216700919199e+02  1.0089023483567776e+02  1.0087493238365415e+02  1.0086287928543894e+02  1.0084062173052014e+02  1.0085378956159352e+02  1.0083425117748540e+02  1.0084745097422476e+02  1.0083049544975394e+02  1.0084371762837847e+02  1.0084250505696014e+02  1.0084378742259942e+02  1.0096960908146724e+02  1.0098658404990105e+02  1.0095609417561396e+02  1.0094559452467381e+02  1.0093776753336824e+02  1.0093235968531306e+02  1.0092919706240602e+02  1.0092817895300297e+02  1.0103741531924418e+02  1.0105287974526260e+02  1.0100906910592366e+02  1.0102532140534299e+02  1.0101607823415871e+02  1.0107757672467984e+02  1.0109505577919397e+02  1.0109193832716461e+02  1.0108405791108814e+02  1.0107580390426715e+02  1.0114374044798409e+02  1.0113356041611964e+02  1.0024408812595362e+02  1.0004011750430841e+02  1.0015699819405336e+02  9.9942272195065257e+01  1.0007830160532099e+02  9.9854240924958034e+01  1.0000799257126543e+02  9.9775866064273302e+01  9.9945938038817104e+01  9.9706887182901440e+01  9.9891934792845177e+01  9.9646994632835600e+01  9.9845748618861620e+01  9.9595865805511792e+01  9.9807141353722500e+01  9.9553189848203530e+01  9.9775889615172844e+01  9.9518684551670773e+01  9.9751797733573881e+01  9.9492107852299668e+01  9.9734706593743340e+01  9.9473265587960995e+01  9.9724499545318594e+01  9.9462016613434315e+01  9.9721106156399657e+01  9.9458276012112918e+01  9.9724504304261330e+01  9.9462016872499404e+01  9.9734720878118210e+01  9.9473270889940693e+01  9.9751831183691550e+01  9.9492127879296390e+01  9.9775956964580260e+01  9.9518734117933562e+01  9.9807262772947965e+01  9.9553289269768072e+01  9.9596041415943915e+01  9.9845950198231208e+01  1.0041961244788376e+02  1.0034244155092151e+02  1.0027256889573692e+02  1.0021003511002192e+02  1.0015476178176705e+02  1.0010660081177048e+02  1.0006536957755947e+02  1.0003087596147058e+02  1.0000293608113559e+02  9.9981386763004949e+01  9.9966094205234143e+01  9.9956959844366850e+01  9.9953924120476060e+01  9.9956968590866339e+01  9.9966116645570139e+01  9.9981432908260814e+01  1.0000302124464960e+02  1.0003102113442789e+02  1.0006560195821513e+02  1.0010695455246031e+02  1.0050288994045742e+02  1.0044093841426039e+02  1.0038555791089432e+02  1.0033664479595556e+02  1.0029404810878606e+02  1.0025759433404289e+02  1.0022710610109850e+02  1.0020241599346119e+02  1.0018337656532263e+02  1.0016986745704902e+02  1.0016180029601702e+02  1.0015912188204199e+02  1.0016181599379668e+02  1.0016990401036112e+02  1.0018344441333760e+02  1.0020253111016177e+02  1.0022729039406894e+02  1.0025787620663749e+02  1.0029243962726554e+02  1.0029446324939870e+02  1.0033478626701159e+02  1.0033723716704603e+02  1.0058695937976840e+02  1.0053788793702219e+02  1.0049471349610776e+02  1.0045722742653798e+02  1.0042522355245509e+02  1.0039850753356812e+02  1.0037690452290515e+02  1.0036026508575858e+02  1.0034846958602634e+02  1.0034143129542146e+02  1.0033909845610528e+02  1.0034145547154395e+02  1.0034852333357126e+02  1.0036035932390861e+02  1.0037705595739594e+02  1.0039873906797777e+02  1.0042556486310512e+02  1.0045386164284233e+02  1.0045771575972876e+02  1.0049118447831628e+02  1.0049539464510828e+02  1.0053881782287195e+02  1.0071376360339440e+02  1.0067003573368400e+02  1.0063185321901872e+02  1.0059890485512008e+02  1.0057091557911205e+02  1.0054764537603383e+02  1.0052888963165960e+02  1.0051447994879743e+02  1.0050428500072154e+02  1.0049821124597943e+02  1.0049620345250906e+02  1.0049824502931827e+02  1.0050435817693338e+02  1.0051460386348585e+02  1.0052908162318741e+02  1.0054792917252776e+02  1.0056598292911569e+02  1.0057132184264428e+02  1.0059391480309921e+02  1.0059947191693304e+02  1.0062677781599110e+02  1.0063262793553220e+02  1.0067107484767564e+02  1.0078466157474074e+02  1.0075067082269533e+02  1.0072162383333546e+02  1.0069714915273856e+02  1.0067693794816743e+02  1.0066073701594858e+02  1.0064834421700378e+02  1.0063960546030413e+02  1.0063441271462077e+02  1.0063270275616253e+02  1.0063445649207132e+02  1.0063969878121041e+02  1.0064849872928778e+02  1.0066097048180455e+02  1.0067727459616893e+02  1.0069065448412192e+02  1.0069762014415868e+02  1.0072226786642766e+02  1.0075153476861570e+02  1.0078580148218647e+02  1.0085347914966836e+02  1.0088407302165773e+02  1.0082768191865517e+02  1.0080619579234964e+02  1.0078862677792566e+02  1.0077465891589061e+02  1.0076404468983992e+02  1.0075659824162960e+02  1.0075219066654502e+02  1.0075074693346984e+02  1.0075224415411971e+02  1.0074836580073841e+02  1.0075671105405856e+02  1.0075588436043554e+02  1.0076422859855759e+02  1.0076657667615284e+02  1.0077493181696794e+02  1.0078062431430990e+02  1.0078901297139711e+02  1.0079826809663741e+02  1.0080672633084593e+02  1.0082839502774088e+02  1.0091912427485090e+02  1.0094230043926497e+02  1.0090010678444654e+02  1.0088475938219332e+02  1.0087269421251789e+02  1.0086361032510808e+02  1.0085728355920311e+02  1.0085355935255561e+02  1.0085234794600304e+02  1.0085362164565309e+02  1.0084759663069747e+02  1.0085741395474864e+02  1.0085402328550815e+02  1.0086382051317496e+02  1.0086321954965963e+02  1.0087300189969298e+02  1.0087540410636078e+02  1.0088518847910495e+02  1.0090068761298168e+02  1.0091989377850960e+02  1.0099774907571307e+02  1.0098071086422028e+02  1.0096718154095453e+02  1.0095669698435105e+02  1.0094889831202909e+02  1.0094351907323221e+02  1.0094037596586168e+02  1.0093936255531554e+02  1.0092927417080109e+02  1.0094044564758116e+02  1.0094366411700811e+02  1.0094913012097501e+02  1.0095703275914536e+02  1.0096764436798517e+02  1.0098132977587883e+02  1.0104961991820480e+02  1.0106512083085650e+02  1.0103753734141490e+02  1.0102833245393954e+02  1.0100928526291281e+02  1.0102158715367347e+02  1.0101699109582808e+02  1.0101433079173690e+02  1.0101348213798856e+02  1.0101440606146635e+02  1.0101714709381137e+02  1.0110823998485002e+02  1.0109727483764109e+02  1.0108907861088440e+02  1.0106983658017043e+02  1.0108317536777609e+02  1.0107921132416216e+02  1.0114765541105565e+02  1.0114023192195592e+02  1.0113498446929582e+02  1.0113151794132010e+02  1.0118976521969834e+02  1.0118291568544211e+02  1.0015786317804317e+02  9.9941901505793936e+01  1.0004062921992012e+02  1.0007846756951012e+02  9.9853080628154032e+01  1.0000754711097538e+02  9.9774011794362863e+01  9.9944967229584293e+01  9.9704433381672430e+01  9.9890520575769244e+01  9.9644031819398435e+01  9.9843967250706726e+01  9.9592478939343223e+01  9.9805062725883303e+01  9.9549457584717686e+01  9.9773577259632020e+01  9.9514679205107896e+01  9.9749309355348132e+01  9.9487895902191667e+01  9.9732094993151634e+01  9.9468908589426619e+01  9.9721813816552853e+01  9.9457572394618140e+01  9.9718393068781268e+01  9.9453800062104193e+01  9.9721809787783371e+01  9.9457563838241498e+01  9.9732091544392517e+01  9.9468896110196525e+01  9.9749315816679470e+01  9.9487888886961642e+01  9.9773607912545330e+01  9.9514692039120902e+01  9.9805137163759824e+01  9.9549510038570261e+01  9.9844110885397228e+01  9.9592596709304047e+01  9.9890765340230843e+01  1.0034449020089400e+02  1.0027399694356100e+02  1.0021092507826026e+02  1.0015519376595499e+02  1.001066500635017