<?xml version="1.0"?>
<VTKFile type="UnstructuredGrid"  version="0.1"  >
<UnstructuredGrid>
<Piece  NumberOfPoints="7656" NumberOfCells="39114">
<Points>
<DataArray  type="Float64"  NumberOfComponents="3"  format="ascii">0 0 0  0.025 0 0  0.025 0.025 0  0.025 0.025 0.025  0.025 0 0.025  0 0 0.025  0 0.025 0  0 0.025 0.025  0.05 0 0  0.05 0.025 0  0.05 0.025 0.025  0.05 0 0.025  0.075 0 0  0.075 0.025 0  0.075 0.025 0.025  0.075 0 0.025  0.1 0 0  0.1 0.025 0  0.1 0.025 0.025  0.1 0 0.025  0.125 0 0  0.125 0.025 0  0.125 0.025 0.025  0.125 0 0.025  0.15 0 0  0.15 0.025 0  0.15 0.025 0.025  0.15 0 0.025  0.175 0 0  0.175 0.025 0  0.175 0.025 0.025  0.175 0 0.025  0.2 0 0  0.2 0.025 0  0.2 0.025 0.025  0.2 0 0.025  0.225 0 0  0.225 0.025 0  0.225 0.025 0.025  0.225 0 0.025  0.25 0 0  0.25 0.025 0  0.25 0.025 0.025  0.25 0 0.025  0.275 0 0  0.275 0.025 0  0.275 0.025 0.025  0.275 0 0.025  0.3 0 0  0.3 0.025 0  0.3 0.025 0.025  0.3 0 0.025  0.325 0 0  0.325 0.025 0  0.325 0.025 0.025  0.325 0 0.025  0.35 0 0  0.35 0.025 0  0.35 0.025 0.025  0.35 0 0.025  0.375 0 0  0.375 0.025 0  0.375 0.025 0.025  0.375 0 0.025  0.4 0 0  0.4 0.025 0  0.4 0.025 0.025  0.4 0 0.025  0.425 0 0  0.425 0.025 0  0.425 0.025 0.025  0.425 0 0.025  0.45 0 0  0.45 0.025 0  0.45 0.025 0.025  0.45 0 0.025  0.475 0 0  0.475 0.025 0  0.475 0.025 0.025  0.475 0 0.025  0.5 0 0  0.5 0.025 0  0.5 0.025 0.025  0.5 0 0.025  0.025 0.05 0  0.025 0.05 0.025  0 0.05 0  0 0.05 0.025  0.05 0.05 0  0.05 0.05 0.025  0.075 0.05 0  0.075 0.05 0.025  0.1 0.05 0  0.1 0.05 0.025  0.125 0.05 0  0.125 0.05 0.025  0.15 0.05 0  0.15 0.05 0.025  0.175 0.05 0  0.175 0.05 0.025  0.2 0.05 0  0.2 0.05 0.025  0.225 0.05 0  0.225 0.05 0.025  0.25 0.05 0  0.25 0.05 0.025  0.275 0.05 0  0.275 0.05 0.025  0.3 0.05 0  0.3 0.05 0.025  0.325 0.05 0  0.325 0.05 0.025  0.35 0.05 0  0.35 0.05 0.025  0.375 0.05 0  0.375 0.05 0.025  0.4 0.05 0  0.4 0.05 0.025  0.425 0.05 0  0.425 0.05 0.025  0.45 0.05 0  0.45 0.05 0.025  0.475 0.05 0  0.475 0.05 0.025  0.5 0.05 0  0.5 0.05 0.025  0.525 0.05 0  0.525 0.05 0.025  0.025 0.075 0  0.025 0.075 0.025  0 0.075 0  0 0.075 0.025  0.05 0.075 0  0.05 0.075 0.025  0.075 0.075 0  0.075 0.075 0.025  0.1 0.075 0  0.1 0.075 0.025  0.125 0.075 0  0.125 0.075 0.025  0.15 0.075 0  0.15 0.075 0.025  0.175 0.075 0  0.175 0.075 0.025  0.2 0.075 0  0.2 0.075 0.025  0.225 0.075 0  0.225 0.075 0.025  0.25 0.075 0  0.25 0.075 0.025  0.275 0.075 0  0.275 0.075 0.025  0.3 0.075 0  0.3 0.075 0.025  0.325 0.075 0  0.325 0.075 0.025  0.35 0.075 0  0.35 0.075 0.025  0.375 0.075 0  0.375 0.075 0.025  0.4 0.075 0  0.4 0.075 0.025  0.425 0.075 0  0.425 0.075 0.025  0.45 0.075 0  0.45 0.075 0.025  0.475 0.075 0  0.475 0.075 0.025  0.5 0.075 0  0.5 0.075 0.025  0.525 0.075 0  0.525 0.075 0.025  0.025 0.1 0  0.025 0.1 0.025  0 0.1 0  0 0.1 0.025  0.05 0.1 0  0.05 0.1 0.025  0.075 0.1 0  0.075 0.1 0.025  0.1 0.1 0  0.1 0.1 0.025  0.125 0.1 0  0.125 0.1 0.025  0.15 0.1 0  0.15 0.1 0.025  0.175 0.1 0  0.175 0.1 0.025  0.2 0.1 0  0.2 0.1 0.025  0.225 0.1 0  0.225 0.1 0.025  0.25 0.1 0  0.25 0.1 0.025  0.275 0.1 0  0.275 0.1 0.025  0.3 0.1 0  0.3 0.1 0.025  0.325 0.1 0  0.325 0.1 0.025  0.35 0.1 0  0.35 0.1 0.025  0.375 0.1 0  0.375 0.1 0.025  0.4 0.1 0  0.4 0.1 0.025  0.425 0.1 0  0.425 0.1 0.025  0.45 0.1 0  0.45 0.1 0.025  0.475 0.1 0  0.475 0.1 0.025  0.5 0.1 0  0.5 0.1 0.025  0.525 0.1 0  0.525 0.1 0.025  0.025 0.125 0  0.025 0.125 0.025  0 0.125 0  0 0.125 0.025  0.05 0.125 0  0.05 0.125 0.025  0.075 0.125 0  0.075 0.125 0.025  0.1 0.125 0  0.1 0.125 0.025  0.125 0.125 0  0.125 0.125 0.025  0.15 0.125 0  0.15 0.125 0.025  0.175 0.125 0  0.175 0.125 0.025  0.2 0.125 0  0.2 0.125 0.025  0.225 0.125 0  0.225 0.125 0.025  0.25 0.125 0  0.25 0.125 0.025  0.275 0.125 0  0.275 0.125 0.025  0.3 0.125 0  0.3 0.125 0.025  0.325 0.125 0  0.325 0.125 0.025  0.35 0.125 0  0.35 0.125 0.025  0.375 0.125 0  0.375 0.125 0.025  0.4 0.125 0  0.4 0.125 0.025  0.425 0.125 0  0.425 0.125 0.025  0.45 0.125 0  0.45 0.125 0.025  0.475 0.125 0  0.475 0.125 0.025  0.5 0.125 0  0.5 0.125 0.025  0.525 0.125 0  0.525 0.125 0.025  0.025 0.15 0  0.025 0.15 0.025  0 0.15 0  0 0.15 0.025  0.05 0.15 0  0.05 0.15 0.025  0.075 0.15 0  0.075 0.15 0.025  0.1 0.15 0  0.1 0.15 0.025  0.125 0.15 0  0.125 0.15 0.025  0.15 0.15 0  0.15 0.15 0.025  0.175 0.15 0  0.175 0.15 0.025  0.2 0.15 0  0.2 0.15 0.025  0.225 0.15 0  0.225 0.15 0.025  0.25 0.15 0  0.25 0.15 0.025  0.275 0.15 0  0.275 0.15 0.025  0.3 0.15 0  0.3 0.15 0.025  0.325 0.15 0  0.325 0.15 0.025  0.35 0.15 0  0.35 0.15 0.025  0.375 0.15 0  0.375 0.15 0.025  0.4 0.15 0  0.4 0.15 0.025  0.425 0.15 0  0.425 0.15 0.025  0.45 0.15 0  0.45 0.15 0.025  0.475 0.15 0  0.475 0.15 0.025  0.5 0.15 0  0.5 0.15 0.025  0.525 0.15 0  0.525 0.15 0.025  0.55 0.15 0.025  0.025 0.175 0  0.025 0.175 0.025  0.05 0.175 0  0.05 0.175 0.025  0.075 0.175 0  0.075 0.175 0.025  0.1 0.175 0  0.1 0.175 0.025  0.125 0.175 0  0.125 0.175 0.025  0.15 0.175 0  0.15 0.175 0.025  0.175 0.175 0  0.175 0.175 0.025  0.2 0.175 0  0.2 0.175 0.025  0.225 0.175 0  0.225 0.175 0.025  0.25 0.175 0  0.25 0.175 0.025  0.275 0.175 0  0.275 0.175 0.025  0.3 0.175 0  0.3 0.175 0.025  0.325 0.175 0  0.325 0.175 0.025  0.35 0.175 0  0.35 0.175 0.025  0.375 0.175 0  0.375 0.175 0.025  0.4 0.175 0  0.4 0.175 0.025  0.425 0.175 0  0.425 0.175 0.025  0.45 0.175 0  0.45 0.175 0.025  0.475 0.175 0  0.475 0.175 0.025  0.5 0.175 0  0.5 0.175 0.025  0.525 0.175 0  0.525 0.175 0.025  0.55 0.175 0.025  0.55 0.175 0  0.05 0.2 0.025  0.075 0.2 0  0.075 0.2 0.025  0.1 0.2 0  0.1 0.2 0.025  0.125 0.2 0  0.125 0.2 0.025  0.15 0.2 0  0.15 0.2 0.025  0.175 0.2 0  0.175 0.2 0.025  0.2 0.2 0  0.2 0.2 0.025  0.225 0.2 0  0.225 0.2 0.025  0.25 0.2 0  0.25 0.2 0.025  0.275 0.2 0  0.275 0.2 0.025  0.3 0.2 0  0.3 0.2 0.025  0.325 0.2 0  0.325 0.2 0.025  0.35 0.2 0  0.35 0.2 0.025  0.375 0.2 0  0.375 0.2 0.025  0.4 0.2 0  0.4 0.2 0.025  0.425 0.2 0  0.425 0.2 0.025  0.45 0.2 0  0.45 0.2 0.025  0.475 0.2 0  0.475 0.2 0.025  0.5 0.2 0  0.5 0.2 0.025  0.525 0.2 0  0.525 0.2 0.025  0.55 0.2 0  0.55 0.2 0.025  0.1 0.225 0.025  0.125 0.225 0  0.125 0.225 0.025  0.15 0.225 0  0.15 0.225 0.025  0.175 0.225 0  0.175 0.225 0.025  0.2 0.225 0  0.2 0.225 0.025  0.225 0.225 0  0.225 0.225 0.025  0.25 0.225 0  0.25 0.225 0.025  0.275 0.225 0  0.275 0.225 0.025  0.3 0.225 0  0.3 0.225 0.025  0.325 0.225 0  0.325 0.225 0.025  0.35 0.225 0  0.35 0.225 0.025  0.375 0.225 0  0.375 0.225 0.025  0.4 0.225 0  0.4 0.225 0.025  0.425 0.225 0  0.425 0.225 0.025  0.45 0.225 0  0.45 0.225 0.025  0.475 0.225 0  0.475 0.225 0.025  0.5 0.225 0  0.5 0.225 0.025  0.525 0.225 0  0.525 0.225 0.025  0.55 0.225 0  0.55 0.225 0.025  0.575 0.225 0  0.575 0.225 0.025  0.15 0.25 0  0.15 0.25 0.025  0.175 0.25 0  0.175 0.25 0.025  0.2 0.25 0  0.2 0.25 0.025  0.225 0.25 0  0.225 0.25 0.025  0.25 0.25 0  0.25 0.25 0.025  0.275 0.25 0  0.275 0.25 0.025  0.3 0.25 0  0.3 0.25 0.025  0.325 0.25 0  0.325 0.25 0.025  0.35 0.25 0  0.35 0.25 0.025  0.375 0.25 0  0.375 0.25 0.025  0.4 0.25 0  0.4 0.25 0.025  0.425 0.25 0  0.425 0.25 0.025  0.45 0.25 0  0.45 0.25 0.025  0.475 0.25 0  0.475 0.25 0.025  0.5 0.25 0  0.5 0.25 0.025  0.525 0.25 0  0.525 0.25 0.025  0.55 0.25 0  0.55 0.25 0.025  0.575 0.25 0  0.575 0.25 0.025  0.6 0.25 0  0.6 0.25 0.025  0.175 0.275 0  0.175 0.275 0.025  0.2 0.275 0  0.2 0.275 0.025  0.225 0.275 0  0.225 0.275 0.025  0.25 0.275 0  0.25 0.275 0.025  0.275 0.275 0  0.275 0.275 0.025  0.3 0.275 0  0.3 0.275 0.025  0.325 0.275 0  0.325 0.275 0.025  0.35 0.275 0  0.35 0.275 0.025  0.375 0.275 0  0.375 0.275 0.025  0.4 0.275 0  0.4 0.275 0.025  0.425 0.275 0  0.425 0.275 0.025  0.45 0.275 0  0.45 0.275 0.025  0.475 0.275 0  0.475 0.275 0.025  0.5 0.275 0  0.5 0.275 0.025  0.525 0.275 0  0.525 0.275 0.025  0.55 0.275 0  0.55 0.275 0.025  0.575 0.275 0  0.575 0.275 0.025  0.6 0.275 0  0.6 0.275 0.025  0.2 0.3 0  0.2 0.3 0.025  0.225 0.3 0  0.225 0.3 0.025  0.25 0.3 0  0.25 0.3 0.025  0.275 0.3 0  0.275 0.3 0.025  0.3 0.3 0  0.3 0.3 0.025  0.325 0.3 0  0.325 0.3 0.025  0.35 0.3 0  0.35 0.3 0.025  0.375 0.3 0  0.375 0.3 0.025  0.4 0.3 0  0.4 0.3 0.025  0.425 0.3 0  0.425 0.3 0.025  0.45 0.3 0  0.45 0.3 0.025  0.475 0.3 0  0.475 0.3 0.025  0.5 0.3 0  0.5 0.3 0.025  0.525 0.3 0  0.525 0.3 0.025  0.55 0.3 0  0.55 0.3 0.025  0.575 0.3 0  0.575 0.3 0.025  0.6 0.3 0  0.6 0.3 0.025  0.225 0.325 0  0.225 0.325 0.025  0.25 0.325 0  0.25 0.325 0.025  0.275 0.325 0  0.275 0.325 0.025  0.3 0.325 0  0.3 0.325 0.025  0.325 0.325 0  0.325 0.325 0.025  0.35 0.325 0  0.35 0.325 0.025  0.375 0.325 0  0.375 0.325 0.025  0.4 0.325 0  0.4 0.325 0.025  0.425 0.325 0  0.425 0.325 0.025  0.45 0.325 0  0.45 0.325 0.025  0.475 0.325 0  0.475 0.325 0.025  0.5 0.325 0  0.5 0.325 0.025  0.525 0.325 0  0.525 0.325 0.025  0.55 0.325 0  0.55 0.325 0.025  0.575 0.325 0  0.575 0.325 0.025  0.6 0.325 0  0.6 0.325 0.025  0.625 0.325 0  0.625 0.325 0.025  0.25 0.35 0  0.25 0.35 0.025  0.275 0.35 0  0.275 0.35 0.025  0.3 0.35 0  0.3 0.35 0.025  0.325 0.35 0  0.325 0.35 0.025  0.35 0.35 0  0.35 0.35 0.025  0.375 0.35 0  0.375 0.35 0.025  0.4 0.35 0  0.4 0.35 0.025  0.425 0.35 0  0.425 0.35 0.025  0.45 0.35 0  0.45 0.35 0.025  0.475 0.35 0  0.475 0.35 0.025  0.5 0.35 0  0.5 0.35 0.025  0.525 0.35 0  0.525 0.35 0.025  0.55 0.35 0  0.55 0.35 0.025  0.575 0.35 0  0.575 0.35 0.025  0.6 0.35 0  0.6 0.35 0.025  0.625 0.35 0  0.625 0.35 0.025  0.275 0.375 0  0.275 0.375 0.025  0.3 0.375 0  0.3 0.375 0.025  0.325 0.375 0  0.325 0.375 0.025  0.35 0.375 0  0.35 0.375 0.025  0.375 0.375 0  0.375 0.375 0.025  0.4 0.375 0  0.4 0.375 0.025  0.425 0.375 0  0.425 0.375 0.025  0.45 0.375 0  0.45 0.375 0.025  0.475 0.375 0  0.475 0.375 0.025  0.5 0.375 0  0.5 0.375 0.025  0.525 0.375 0  0.525 0.375 0.025  0.55 0.375 0  0.55 0.375 0.025  0.575 0.375 0  0.575 0.375 0.025  0.6 0.375 0  0.6 0.375 0.025  0.625 0.375 0  0.625 0.375 0.025  0.65 0.375 0  0.65 0.375 0.025  0.3 0.4 0.025  0.325 0.4 0  0.325 0.4 0.025  0.35 0.4 0  0.
[...]
<PointData  Scalars="f_11"> 
<DataArray  type="Float64"  Name="f_11"  format="ascii">3.0000000000000000e+02  3.0000000000000000e+02  3.0000000000000000e+02  2.9995647454357010e+02  3.0000000000000000e+02  3.0000000000000000e+02  3.0000000000000000e+02  3.0000000000000000e+02  3.0000000000000000e+02  3.0000000000000000e+02  2.9993391558637984e+02  3.0000000000000000e+02  3.0000000000000000e+02  3.0000000000000000e+02  2.9992000657943680e+02  3.0000000000000000e+02  3.0000000000000000e+02  3.0000000000000000e+02  2.9991041488644038e+02  3.0000000000000000e+02  3.0000000000000000e+02  3.0000000000000000e+02  2.9990332276534548e+02  3.0000000000000000e+02  3.0000000000000000e+02  3.0000000000000000e+02  2.9989784139938814e+02  3.0000000000000000e+02  3.0000000000000000e+02  3.0000000000000000e+02  2.9989347999643519e+02  3.0000000000000000e+02  3.0000000000000000e+02  3.0000000000000000e+02  2.9988994139403508e+02  3.0000000000000000e+02  3.0000000000000000e+02  3.0000000000000000e+02  2.9988703282809558e+02  3.0000000000000000e+02  3.0000000000000000e+02  3.0000000000000000e+02  2.9988462261006600e+02  3.0000000000000000e+02  3.0000000000000000e+02  3.0000000000000000e+02  2.9988261718785310e+02  3.0000000000000000e+02  3.0000000000000000e+02  3.0000000000000000e+02  2.9988094812205520e+02  3.0000000000000000e+02  3.0000000000000000e+02  3.0000000000000000e+02  2.9987956426582338e+02  3.0000000000000000e+02  3.0000000000000000e+02  3.0000000000000000e+02  2.9987842685391161e+02  3.0000000000000000e+02  3.0000000000000000e+02  3.0000000000000000e+02  2.9987750630753408e+02  3.0000000000000000e+02  3.0000000000000000e+02  3.0000000000000000e+02  2.9987678009945319e+02  3.0000000000000000e+02  3.0000000000000000e+02  3.0000000000000000e+02  2.9987623130266417e+02  3.0000000000000000e+02  3.0000000000000000e+02  3.0000000000000000e+02  2.9987584759858601e+02  3.0000000000000000e+02  3.0000000000000000e+02  3.0000000000000000e+02  2.9987562060823774e+02  3.0000000000000000e+02  3.0000000000000000e+02  3.0000000000000000e+02  2.9987554546271389e+02  3.0000000000000000e+02  3.0000000000000000e+02  2.9993388784142689e+02  3.0000000000000000e+02  3.0000000000000000e+02  2.9999999999999994e+02  2.9989491345566483e+02  2.9999999999999994e+02  2.9986924322072741e+02  2.9999999999999994e+02  2.9985094799600819e+02  2.9999999999999994e+02  2.9983718641857519e+02  2.9999999999999994e+02  2.9982644710318789e+02  2.9999999999999994e+02  2.9981785123502931e+02  2.9999999999999994e+02  2.9981084952230606e+02  2.9999999999999994e+02  2.9980507840649608e+02  2.9999999999999994e+02  2.9980028620899776e+02  2.9999999999999994e+02  2.9979629250773382e+02  2.9999999999999994e+02  2.9979296446014416e+02  2.9999999999999994e+02  2.9979020232092290e+02  2.9999999999999994e+02  2.9978793022491845e+02  2.9999999999999994e+02  2.9978609013082888e+02  2.9999999999999994e+02  2.9978463774443867e+02  2.9999999999999994e+02  2.9978353973167594e+02  2.9999999999999994e+02  2.9978277180600486e+02  2.9999999999999994e+02  2.9978231743463459e+02  2.9999999999999994e+02  2.9978216700580316e+02  2.9999999999999994e+02  2.9978231736256140e+02  3.0000000000000000e+02  2.9991992988841048e+02  3.0000000000000000e+02  3.0000000000000000e+02  2.9999999999999994e+02  2.9986917637353434e+02  3.0000000000000000e+02  2.9983408318643410e+02  3.0000000000000000e+02  2.9980830623038167e+02  3.0000000000000000e+02  2.9978855398575297e+02  3.0000000000000000e+02  2.9977295826267033e+02  3.0000000000000000e+02  2.9976037895791148e+02  3.0000000000000000e+02  2.9975007836983031e+02  3.0000000000000000e+02  2.9974155611583495e+02  3.0000000000000000e+02  2.9973445968361807e+02  3.0000000000000000e+02  2.9972853314130379e+02  3.0000000000000000e+02  2.9972358627931106e+02  3.0000000000000000e+02  2.9971947527378165e+02  3.0000000000000000e+02  2.9971609015032578e+02  3.0000000000000000e+02  2.9971334642871705e+02  3.0000000000000000e+02  2.9971117943632737e+02  3.0000000000000000e+02  2.9970954038746595e+02  3.0000000000000000e+02  2.9970839367511581e+02  3.0000000000000000e+02  2.9970771502993512e+02  3.0000000000000000e+02  2.9970749033119785e+02  3.0000000000000000e+02  2.9970771493957358e+02  3.0000000000000000e+02  2.9991027407651302e+02  3.0000000000000000e+02  3.0000000000000000e+02  2.9999999999999994e+02  2.9985078650679355e+02  3.0000000000000000e+02  2.9980819989687336e+02  3.0000000000000000e+02  2.9977613684278509e+02  3.0000000000000000e+02  2.9975114547134683e+02  3.0000000000000000e+02  2.9973117947164008e+02  3.0000000000000000e+02  2.9971494152781582e+02  3.0000000000000000e+02  2.9970156590955759e+02  3.0000000000000000e+02  2.9969045109134930e+02  3.0000000000000000e+02  2.9968116540013557e+02  3.0000000000000000e+02  2.9967339096014729e+02  3.0000000000000000e+02  2.9966688893752212e+02  3.0000000000000000e+02  2.9966147721491831e+02  3.0000000000000000e+02  2.9965701562331026e+02  3.0000000000000000e+02  2.9965339593826985e+02  3.0000000000000000e+02  2.9965053498259925e+02  3.0000000000000000e+02  2.9964836982164599e+02  3.0000000000000000e+02  2.9964685441754608e+02  3.0000000000000000e+02  2.9964595734090875e+02  3.0000000000000000e+02  2.9964566028628900e+02  3.0000000000000000e+02  2.9964595723678246e+02  3.0000000000000000e+02  2.9990310764543125e+02  3.0000000000000000e+02  3.0000000000000000e+02  2.9999999999999994e+02  2.9983691120628617e+02  3.0000000000000000e+02  2.9978831415242121e+02  3.0000000000000000e+02  2.9975100419856562e+02  3.0000000000000000e+02  2.9972149415068952e+02  3.0000000000000000e+02  2.9969766068693360e+02  3.0000000000000000e+02  2.9967812031556559e+02  3.0000000000000000e+02  2.9966192660924122e+02  3.0000000000000000e+02  2.9964840794663547e+02  3.0000000000000000e+02  2.9963707391034779e+02  3.0000000000000000e+02  2.9962755826024477e+02  3.0000000000000000e+02  2.9961958270840961e+02  3.0000000000000000e+02  2.9961293313564641e+02  3.0000000000000000e+02  2.9960744355749790e+02  3.0000000000000000e+02  2.9960298508716738e+02  3.0000000000000000e+02  2.9959945822322589e+02  3.0000000000000000e+02  2.9959678741818254e+02  3.0000000000000000e+02  2.9959491726306663e+02  3.0000000000000000e+02  2.9959380986017322e+02  3.0000000000000000e+02  2.9959344311020169e+02  3.0000000000000000e+02  2.9959380974523577e+02  3.0000000000000000e+02  2.9989754578974288e+02  3.0000000000000000e+02  3.0000000000000000e+02  2.9999999999999994e+02  2.9982604603247006e+02  3.0000000000000000e+02  2.9977256720677894e+02  3.0000000000000000e+02  2.9973087388751412e+02  3.0000000000000000e+02  2.9969749117118079e+02  3.0000000000000000e+02  2.9967027046893998e+02  3.0000000000000000e+02  2.9964778575945991e+02  3.0000000000000000e+02  2.9962904313825044e+02  3.0000000000000000e+02  2.9961332501732090e+02  3.0000000000000000e+02  2.9960009941820402e+02  3.0000000000000000e+02  2.9958896390693042e+02  3.0000000000000000e+02  2.9957960938028913e+02  3.0000000000000000e+02  2.9957179588403642e+02  3.0000000000000000e+02  2.9956533604852501e+02  3.0000000000000000e+02  2.9956008352190315e+02  3.0000000000000000e+02  2.9955592478617774e+02  3.0000000000000000e+02  2.9955277333244561e+02  3.0000000000000000e+02  2.9955056553354154e+02  3.0000000000000000e+02  2.9954925778249151e+02  3.0000000000000000e+02  2.9954882461742574e+02  3.0000000000000000e+02  2.9954925765942301e+02  2.9955056526853269e+02  3.0000000000000000e+02  2.9989310093106371e+02  2.9999999999999994e+02  2.9981731776455780e+02  3.0000000000000000e+02  2.9975982646824116e+02  3.0000000000000000e+02  2.9971445783224323e+02  3.0000000000000000e+02  2.9967776397867721e+02  3.0000000000000000e+02  2.9964759546902803e+02  3.0000000000000000e+02  2.9962250875634550e+02  3.0000000000000000e+02  2.9960148415928808e+02  3.0000000000000000e+02  2.9958377552977805e+02  3.0000000000000000e+02  2.9956882273261834e+02  3.0000000000000000e+02  2.9955619724862169e+02  3.0000000000000000e+02  2.9954556670776867e+02  3.0000000000000000e+02  2.9953667093561427e+02  3.0000000000000000e+02  2.9952930534799145e+02  3.0000000000000000e+02  2.9952330922038004e+02  3.0000000000000000e+02  2.9951855729906202e+02  3.0000000000000000e+02  2.9951495377412471e+02  3.0000000000000000e+02  2.9951242797470263e+02  3.0000000000000000e+02  2.9951093136521621e+02  3.0000000000000000e+02  2.9951043556755928e+02  3.0000000000000000e+02  2.9951093123713372e+02  2.9951242769827957e+02  3.0000000000000000e+02  2.9981018163072190e+02  3.0000000000000000e+02  2.9974936029800961e+02  3.0000000000000000e+02  2.9970089767792507e+02  3.0000000000000000e+02  2.9966137473243458e+02  3.0000000000000000e+02  2.9962865155514140e+02  3.0000000000000000e+02  2.9960128058843742e+02  3.0000000000000000e+02  2.9957822982905168e+02  3.0000000000000000e+02  2.9955873647947726e+02  3.0000000000000000e+02  2.9954222215125060e+02  3.0000000000000000e+02  2.9952824018414162e+02  3.0000000000000000e+02  2.9951644118034295e+02  3.0000000000000000e+02  2.9950654958230285e+02  3.0000000000000000e+02  2.9949834730872726e+02  3.0000000000000000e+02  2.9949166209661752e+02  3.0000000000000000e+02  2.9948635909469340e+02  3.0000000000000000e+02  2.9948233477682646e+02  3.0000000000000000e+02  2.9947951256514000e+02  3.0000000000000000e+02  2.9947783975868572e+02  3.0000000000000000e+02  2.9947728550239583e+02  3.0000000000000000e+02  2.9947783962949188e+02  3.0000000000000000e+02  2.9947951228547049e+02  2.9968959786071684e+02  3.0000000000000000e+02  2.9964765868666507e+02  3.0000000000000000e+02  2.9961272886566292e+02  3.0000000000000000e+02  2.9958336366140645e+02  3.0000000000000000e+02  2.9955852672387874e+02  3.0000000000000000e+02  2.9953744642691896e+02  3.0000000000000000e+02  2.9951953314914221e+02  3.0000000000000000e+02  2.9950432807431577e+02  3.0000000000000000e+02  2.9949146971696439e+02  3.0000000000000000e+02  2.9948067112715637e+02  3.0000000000000000e+02  2.9947170389960434e+02  3.0000000000000000e+02  2.9946438672099464e+02  3.0000000000000000e+02  2.9945857706317321e+02  3.0000000000000000e+02  2.9945416513383299e+02  3.0000000000000000e+02  2.9945106950307905e+02  3.0000000000000000e+02  2.9944923402043423e+02  3.0000000000000000e+02  2.9944862576870673e+02  3.0000000000000000e+02  2.9944923389491402e+02  3.0000000000000000e+02  2.9945106923007404e+02  3.0000000000000000e+02  2.9945416466967953e+02  3.0000000000000000e+02  2.9959930161393544e+02  3.0000000000000000e+02  2.9956820462417198e+02  3.0000000000000000e+02  2.9954180381070336e+02  3.0000000000000000e+02  2.9951932366563216e+02  3.0000000000000000e+02  2.9950016814234192e+02  3.0000000000000000e+02  2.9948387062562438e+02  3.0000000000000000e+02  2.9947006132051882e+02  3.0000000000000000e+02  2.9945844506343667e+02  3.0000000000000000e+02  2.9944878573934767e+02  3.0000000000000000e+02  2.9944089509270100e+02  3.0000000000000000e+02  2.9943462458356152e+02  3.0000000000000000e+02  2.9942985943398293e+02  3.0000000000000000e+02  2.9942651430725573e+02  3.0000000000000000e+02  2.9942453025155538e+02  3.0000000000000000e+02  2.9942387266582574e+02  3.0000000000000000e+02  2.9942453013529610e+02  3.0000000000000000e+02  2.9942651405239877e+02  3.0000000000000000e+02  2.9942985899616451e+02  3.0000000000000000e+02  2.9943462389705996e+02  3.0000000000000000e+02  2.9955538038559331e+02  3.0000000000000000e+02  2.9952762026146587e+02  3.0000000000000000e+02  2.9950391559765376e+02  3.0000000000000000e+02  2.9948366710762019e+02  3.0000000000000000e+02  2.9946640345365432e+02  3.0000000000000000e+02  2.9945174933556842e+02  3.0000000000000000e+02  2.9943940383321547e+02  3.0000000000000000e+02  2.9942912521155313e+02  3.0000000000000000e+02  2.9942072000541435e+02  3.0000000000000000e+02  2.9941403506325440e+02  3.0000000000000000e+02  2.9940895171834592e+02  3.0000000000000000e+02  2.9940538154853829e+02  3.0000000000000000e+02  2.9940326336994247e+02  3.0000000000000000e+02  2.9940256123218762e+02  3.0000000000000000e+02  2.9940326326913521e+02  3.0000000000000000e+02  2.9940538132448000e+02  3.0000000000000000e+02  2.9940895132649842e+02  3.0000000000000000e+02  2.9941403443772646e+02  3.0000000000000000e+02  2.9951563132591895e+02  3.0000000000000000e+02  2.9949086565189816e+02  3.0000000000000000e+02  2.9946966541653177e+02  3.0000000000000000e+02  2.9945155666574885e+02  3.0000000000000000e+02  2.9943616061744052e+02  3.0000000000000000e+02  2.9942317244298528e+02  3.0000000000000000e+02  2.9941234641326457e+02  3.0000000000000000e+02  2.9940348523969021e+02  3.0000000000000000e+02  2.9939643230522313e+02  3.0000000000000000e+02  2.9939106596889343e+02  3.0000000000000000e+02  2.9938729541789155e+02  3.0000000000000000e+02  2.9938505772294712e+02  3.0000000000000000e+02  2.9938431587239387e+02  3.0000000000000000e+02  2.9938505764411832e+02  3.0000000000000000e+02  2.9938729523790880e+02  3.0000000000000000e+02  2.9939106564347810e+02  3.0000000000000000e+02  2.9939643176892531e+02  3.0000000000000000e+02  2.9947989076892020e+02  3.0000000000000000e+02  2.9945787196364734e+02  3.0000000000000000e+02  2.9943903355629521e+02  3.0000000000000000e+02  2.9942299469948949e+02  3.0000000000000000e+02  2.9940944800903628e+02  3.0000000000000000e+02  2.9939814499479337e+02  3.0000000000000000e+02  2.9938888562649367e+02  3.0000000000000000e+02  2.9938151073701874e+02  3.0000000000000000e+02  2.9937589645535616e+02  3.0000000000000000e+02  2.9937195015168072e+02  3.0000000000000000e+02  2.9936960755748942e+02  3.0000000000000000e+02  2.9936883084187622e+02  3.0000000000000000e+02  2.9936960750720027e+02  3.0000000000000000e+02  2.9937195002907720e+02  3.0000000000000000e+02  2.9937589621676449e+02  3.0000000000000000e+02  2.9938151031790528e+02  3.0000000000000000e+02  2.9938888494274119e+02  3.0000000000000000e+02  2.9944805381651236e+02  3.0000000000000000e+02  2.9942859567061845e+02  3.0000000000000000e+02  2.9941200922273617e+02  3.0000000000000000e+02  2.9939798549469299e+02  3.0000000000000000e+02  2.9938627414639689e+02  3.0000000000000000e+02  2.9937667322995179e+02  3.0000000000000000e+02  2.9936902174270273e+02  3.0000000000000000e+02  2.9936319417582837e+02  3.0000000000000000e+02  2.9935909654586681e+02  3.0000000000000000e+02  2.9935666357677303e+02  3.0000000000000000e+02  2.9935585681750860e+02  3.0000000000000000e+02  2.9935666356131509e+02  3.0000000000000000e+02  2.9935909649337003e+02  3.0000000000000000e+02  2.9936319404349325e+02  3.0000000000000000e+02  2.9936902146727101e+02  3.0000000000000000e+02  2.9937667272893032e+02  3.0000000000000000e+02  2.9942005208337184e+02  3.0000000000000000e+02  2.9940300948902552e+02  3.0000000000000000e+02  2.9938858750566538e+02  3.0000000000000000e+02  2.9937653459767188e+02  3.0000000000000000e+02  2.9936664751225771e+02  3.0000000000000000e+02  2.9935876395695112e+02  3.0000000000000000e+02  2.9935275724693628e+02  3.0000000000000000e+02  2.9934853241222891e+02  3.0000000000000000e+02  2.9934602343507220e+02  3.0000000000000000e+02  2.9934519140507359e+02  3.0000000000000000e+02  2.9934602346017999e+02  3.0000000000000000e+02  2.9934853244142164e+02  3.0000000000000000e+02  2.9935275723850071e+02  3.0000000000000000e+02  2.9935876384917867e+02  3.0000000000000000e+02  2.9936664722456413e+02  3.0000000000000000e+02  2.9937653403223152e+02  2.9939584085221793e+02  3.0000000000000000e+02  2.9938109686664086e+02  3.0000000000000000e+02  2.9936876735606046e+02  3.0000000000000000e+02  2.9935864820737572e+02  3.0000000000000000e+02  2.9935057624678967e+02  3.0000000000000000e+02  2.9934442396738331e+02  3.0000000000000000e+02  2.9934009569893914e+02  3.0000000000000000e+02  2.9933752489190721e+02  3.0000000000000000e+02  2.9933667230453443e+02  3.0000000000000000e+02  2.9933752496249502e+02  3.0000000000000000e+02  2.9934009581974510e+02  3.0000000000000000e+02  2.9934442409795423e+02  3.0000000000000000e+02  2.9935057632718940e+02  3.0000000000000000e+02  2.9935864815915352e+02  3.0000000000000000e+02  2.9936876708366981e+02  2.9938109625942428e+02  3.0000000000000000e+02  2.9936284839541997e+02  3.0000000000000000e+02  2.9935255011663429e+02  3.0000000000000000e+02  2.9934433259451532e+02  3.0000000000000000e+02  2.9933806776808950e+02  3.0000000000000000e+02  2.9933365948812610e+02  3.0000000000000000e+02  2.9933104083777152e+02  3.0000000000000000e+02  2.9933017234510828e+02  3.0000000000000000e+02  2.9933104095770295e+02  3.0000000000000000e+02  2.9933365970835774e+02  3.0000000000000000e+02  2.9933806804958641e+02  3.0000000000000000e+02  2.9934433287931699e+02  2.9935255032863364e+02  2.9936284844151601e+02  2.9937539095676232e+02  3.0000000000000000e+02  2.9934825932637938e+02  3.0000000000000000e+02  2.9933993838336988e+02  3.0000000000000000e+02  2.9933359355096832e+02  3.0000000000000000e+02  2.9932912837250637e+02  3.0000000000000000e+02  2.9932647569340384e+02  3.0000000000000000e+02  2.9932559589207642e+02  3.0000000000000000e+02  2.9932647586529430e+02  2.9932912869748037e+02  2.9933359399156939e+02  2.9933993888382651e+02  2.9934825981316283e+02  3.0000000000000000e+02  2.9933732776517235e+02  3.0000000000000000e+02  2.9933093509643072e+02  3.0000000000000000e+02  2.9932643589155742e+02  3.0000000000000000e+02  2.9932376286319999e+02  2.9932287630595636e+02  2.9932376308825275e+02  2.9932643632377341e+02  3.0000000000000000e+02  2.9933005333462569e+02  3.0000000000000000e+02  2.9933646190394575e+02  2.9932554282274702e+02  2.9932286303852015e+02  2.9932197424985486e+02  3.0000000000000000e+02  2.9933093535386121e+02  2.9932643620173491e+02  2.9993388784142707e+02  3.0000000000000000e+02  3.0000000000000000e+02  3.0000000000000000e+02  2.9989491345566495e+02  2.9999999999999994e+02  2.9986924322072747e+02  2.9999999999999994e+02  2.9985094799600819e+02  2.9999999999999994e+02  2.9983718641857524e+02  2.9999999999999994e+02  2.9982644710318795e+02  2.9999999999999994e+02  2.9981785123502942e+02  2.9999999999999994e+02  2.9981084952230606e+02  2.9999999999999994e+02  2.9980507840649619e+02  2.9999999999999994e+02  2.9980028620899776e+02  2.9999999999999994e+02  2.9979629250773354e+02  2.9999999999999994e+02  2.9979296446014405e+02  2.9999999999999994e+02  2.9979020232092273e+02  2.9999999999999994e+02  2.9978793022491845e+02  2.9999999999999994e+02  2.9978609013082882e+02  2.9999999999999994e+02  2.9978463774443844e+02  2.9999999999999994e+02  2.9978353973167583e+02  2.9999999999999994e+02  2.9978277180600480e+02  2.9999999999999994e+02  2.9978231743463471e+02  2.9999999999999994e+02  2.9978216700580322e+02  2.9999999999999994e+02  2.9989487078786772e+02  2.9999999999999994e+02  2.9982608846956379e+02  2.9977830148797062e+02  2.9974328930383979e+02  2.9971655554088221e+02  2.9969551056324764e+02  2.9967857415383384e+02  2.9966472861407431e+02  2.9965328731674470e+02  2.9964376882466388e+02  2.9963582494826829e+02  2.9962919769935991e+02  2.9962369246938846e+02  2.9961916072859412e+02  2.9961548854471386e+02  2.9961258879656549e+02  2.9961039582098135e+02  2.9960886172344084e+02  2.9960795387449701e+02  2.9960765329480290e+02  2.9960795374964158e+02  2.9986912312292469e+02  2.9999999999999994e+02  2.9977819329751662e+02  2.9971238205699456e+02  2.9966288147251231e+02  2.9962444968366157e+02  2.9959386817182235e+02  2.9956907932050399e+02  2.9954871316815780e+02  2.9953182327625086e+02  2.9951773465820435e+02  2.9950595305830154e+02  2.9949610888636755e+02  2.9948792141930517e+02  2.9948117527541979e+02  2.9947570457684719e+02  2.9947138208916243e+02  2.9946811169077796e+02  2.9946582314861678e+02  2.9946446855543604e+02  2.9946402002356479e+02  2.9946446838891831e+02  2.9985072462879100e+02  2.9999999999999994e+02  2.9974302422658536e+02  2.9966270305293199e+02  2.9960094484233611e+02  2.9955224241804905e+02  2.9951305976885078e+02  2.9948104948879040e+02  2.9945460080971287e+02  2.9943257447378096e+02  2.9941414314297185e+02  2.9939869251928604e+02  2.9938575829690660e+02  2.9937498486973658e+02  2.9936609763430022e