<?xml version="1.0"?>
<VTKFile type="UnstructuredGrid"  version="0.1"  >
<UnstructuredGrid>
<Piece  NumberOfPoints="7611" NumberOfCells="38339">
<Points>
<DataArray  type="Float64"  NumberOfComponents="3"  format="ascii">0 0.2 0.25  0 0.225 0.25  0 0.225 0.275  0.025 0.225 0.275  0.025 0.25 0.275  0 0.25 0.275  0.025 0.25 0.3  0 0.25 0.3  0.05 0.25 0.3  0.025 0.275 0.3  0 0.275 0.3  0 0.275 0.275  0.05 0.275 0.3  0.025 0.3 0.3  0 0.3 0.3  0.025 0.275 0.325  0.025 0.25 0.325  0 0.25 0.325  0 0.275 0.325  0.05 0.275 0.325  0.05 0.25 0.325  0.075 0.275 0.325  0.025 0.3 0.325  0 0.3 0.325  0.05 0.3 0.325  0.075 0.3 0.325  0.025 0.325 0.325  0 0.325 0.325  0.05 0.325 0.325  0.025 0.275 0.35  0.025 0.25 0.35  0 0.25 0.35  0 0.275 0.35  0.05 0.275 0.35  0.05 0.25 0.35  0.075 0.275 0.35  0.15 0.25 0.325  0.15 0.25 0.35  0.175 0.25 0.35  0.175 0.275 0.35  0.15 0.275 0.35  0.025 0.3 0.35  0 0.3 0.35  0.05 0.3 0.35  0.075 0.3 0.35  0.1 0.275 0.325  0.1 0.3 0.325  0.1 0.3 0.35  0.1 0.275 0.35  0.125 0.275 0.325  0.125 0.3 0.325  0.125 0.3 0.35  0.125 0.275 0.35  0.15 0.3 0.35  0.025 0.325 0.35  0 0.325 0.35  0.05 0.325 0.35  0.075 0.325 0.325  0.075 0.325 0.35  0.1 0.325 0.35  0.125 0.325 0.35  0.15 0.325 0.35  0.025 0.35 0.325  0.025 0.35 0.35  0 0.35 0.325  0 0.35 0.35  0.05 0.35 0.325  0.05 0.35 0.35  0.075 0.35 0.35  0.1 0.35 0.35  0.025 0.375 0.35  0 0.375 0.35  0 0.375 0.325  0.05 0.375 0.35  0.075 0.375 0.35  0.025 0.4 0.35  0 0.4 0.35  0 0.4 0.325  0.025 0.425 0.35  0 0.425 0.35  0 0.425 0.325  0.025 0.45 0.35  0 0.45 0.35  0.025 0.275 0.375  0.025 0.25 0.375  0 0.25 0.375  0 0.275 0.375  0.05 0.275 0.375  0.075 0.275 0.375  0.175 0.275 0.375  0.15 0.275 0.375  0.2 0.275 0.35  0.2 0.275 0.375  0.275 0.25 0.35  0.3 0.25 0.35  0.3 0.25 0.375  0.3 0.275 0.375  0.275 0.25 0.375  0.275 0.275 0.375  0.275 0.275 0.35  0.325 0.25 0.375  0.325 0.275 0.375  0.025 0.3 0.375  0 0.3 0.375  0.05 0.3 0.375  0.075 0.3 0.375  0.1 0.3 0.375  0.1 0.275 0.375  0.125 0.3 0.375  0.125 0.275 0.375  0.15 0.3 0.375  0.175 0.3 0.35  0.175 0.3 0.375  0.2 0.3 0.35  0.2 0.3 0.375  0.225 0.275 0.35  0.225 0.3 0.35  0.225 0.3 0.375  0.225 0.275 0.375  0.25 0.275 0.35  0.25 0.3 0.35  0.25 0.3 0.375  0.25 0.275 0.375  0.275 0.3 0.35  0.275 0.3 0.375  0.3 0.3 0.375  0.025 0.325 0.375  0 0.325 0.375  0.05 0.325 0.375  0.075 0.325 0.375  0.1 0.325 0.375  0.125 0.325 0.375  0.15 0.325 0.375  0.175 0.325 0.375  0.2 0.325 0.375  0.225 0.325 0.375  0.25 0.325 0.375  0.275 0.325 0.375  0.3 0.325 0.375  0.025 0.35 0.375  0 0.35 0.375  0.05 0.35 0.375  0.075 0.35 0.375  0.1 0.35 0.375  0.125 0.35 0.35  0.125 0.35 0.375  0.15 0.35 0.35  0.15 0.35 0.375  0.175 0.35 0.375  0.025 0.375 0.375  0 0.375 0.375  0.05 0.375 0.375  0.075 0.375 0.375  0.1 0.375 0.35  0.1 0.375 0.375  0.125 0.375 0.375  0.15 0.375 0.375  0.175 0.375 0.375  0.025 0.4 0.375  0 0.4 0.375  0.05 0.4 0.35  0.05 0.4 0.375  0.075 0.4 0.35  0.075 0.4 0.375  0.1 0.4 0.375  0.125 0.4 0.375  0.025 0.425 0.375  0 0.425 0.375  0.05 0.425 0.375  0.075 0.425 0.375  0.1 0.425 0.375  0.025 0.45 0.375  0 0.45 0.375  0.05 0.45 0.375  0.025 0.475 0.375  0.05 0.475 0.375  0.025 0.275 0.4  0 0.275 0.4  0.05 0.275 0.4  0.25 0.25 0.375  0.275 0.275 0.4  0.275 0.25 0.4  0.25 0.25 0.4  0.25 0.275 0.4  0.3 0.275 0.4  0.3 0.25 0.4  0.325 0.275 0.4  0.325 0.25 0.4  0.35 0.275 0.4  0.025 0.3 0.4  0 0.3 0.4  0.05 0.3 0.4  0.075 0.3 0.4  0.075 0.275 0.4  0.1 0.3 0.4  0.1 0.275 0.4  0.125 0.3 0.4  0.125 0.275 0.4  0.15 0.3 0.4  0.15 0.275 0.4  0.175 0.3 0.4  0.175 0.275 0.4  0.2 0.3 0.4  0.2 0.275 0.4  0.225 0.3 0.4  0.225 0.275 0.4  0.25 0.3 0.4  0.275 0.3 0.4  0.3 0.3 0.4  0.325 0.3 0.4  0.35 0.3 0.4  0.025 0.325 0.4  0 0.325 0.4  0.05 0.325 0.4  0.075 0.325 0.4  0.1 0.325 0.4  0.125 0.325 0.4  0.15 0.325 0.4  0.175 0.325 0.4  0.2 0.325 0.4  0.225 0.325 0.4  0.25 0.325 0.4  0.275 0.325 0.4  0.3 0.325 0.4  0.325 0.325 0.4  0.025 0.35 0.4  0 0.35 0.4  0.05 0.35 0.4  0.075 0.35 0.4  0.1 0.35 0.4  0.125 0.35 0.4  0.15 0.35 0.4  0.175 0.35 0.4  0.2 0.35 0.375  0.2 0.35 0.4  0.225 0.35 0.4  0.25 0.35 0.4  0.275 0.35 0.4  0.3 0.35 0.4  0.325 0.35 0.4  0.025 0.375 0.4  0 0.375 0.4  0.05 0.375 0.4  0.075 0.375 0.4  0.1 0.375 0.4  0.125 0.375 0.4  0.15 0.375 0.4  0.175 0.375 0.4  0.2 0.375 0.4  0.225 0.375 0.4  0.025 0.4 0.4  0 0.4 0.4  0.05 0.4 0.4  0.075 0.4 0.4  0.1 0.4 0.4  0.125 0.4 0.4  0.15 0.4 0.375  0.15 0.4 0.4  0.175 0.4 0.4  0.2 0.4 0.4  0.025 0.425 0.4  0 0.425 0.4  0.05 0.425 0.4  0.075 0.425 0.4  0.1 0.425 0.4  0.125 0.425 0.4  0.15 0.425 0.4  0.175 0.425 0.4  0.025 0.45 0.4  0 0.45 0.4  0.05 0.45 0.4  0.075 0.45 0.375  0.075 0.45 0.4  0.1 0.45 0.4  0.125 0.45 0.4  0.025 0.475 0.4  0.05 0.475 0.4  0.075 0.475 0.375  0.075 0.475 0.4  0.1 0.475 0.4  0.075 0.5 0.4  0.1 0.5 0.4  0.275 0.275 0.425  0.275 0.25 0.425  0.3 0.275 0.425  0.3 0.25 0.425  0.325 0.275 0.425  0.325 0.25 0.425  0.35 0.275 0.425  0.025 0.3 0.425  0 0.3 0.425  0.05 0.3 0.425  0.075 0.3 0.425  0.075 0.275 0.425  0.1 0.3 0.425  0.1 0.275 0.425  0.125 0.3 0.425  0.125 0.275 0.425  0.15 0.3 0.425  0.15 0.275 0.425  0.175 0.3 0.425  0.175 0.275 0.425  0.2 0.3 0.425  0.2 0.275 0.425  0.225 0.3 0.425  0.225 0.275 0.425  0.25 0.3 0.425  0.25 0.275 0.425  0.275 0.3 0.425  0.3 0.3 0.425  0.325 0.3 0.425  0.35 0.3 0.425  0.375 0.3 0.425  0.025 0.325 0.425  0 0.325 0.425  0.05 0.325 0.425  0.075 0.325 0.425  0.1 0.325 0.425  0.125 0.325 0.425  0.15 0.325 0.425  0.175 0.325 0.425  0.2 0.325 0.425  0.225 0.325 0.425  0.25 0.325 0.425  0.275 0.325 0.425  0.3 0.325 0.425  0.325 0.325 0.425  0.35 0.325 0.4  0.35 0.325 0.425  0.375 0.325 0.425  0.025 0.35 0.425  0 0.35 0.425  0.05 0.35 0.425  0.075 0.35 0.425  0.1 0.35 0.425  0.125 0.35 0.425  0.15 0.35 0.425  0.175 0.35 0.425  0.2 0.35 0.425  0.225 0.35 0.425  0.25 0.35 0.425  0.275 0.35 0.425  0.3 0.35 0.425  0.325 0.35 0.425  0.35 0.35 0.4  0.35 0.35 0.425  0.375 0.35 0.425  0.025 0.375 0.425  0 0.375 0.425  0.05 0.375 0.425  0.075 0.375 0.425  0.1 0.375 0.425  0.125 0.375 0.425  0.15 0.375 0.425  0.175 0.375 0.425  0.2 0.375 0.425  0.225 0.375 0.425  0.25 0.375 0.4  0.25 0.375 0.425  0.275 0.375 0.4  0.275 0.375 0.425  0.3 0.375 0.4  0.3 0.375 0.425  0.325 0.375 0.425  0.35 0.375 0.425  0.375 0.375 0.425  0.025 0.4 0.425  0 0.4 0.425  0.05 0.4 0.425  0.075 0.4 0.425  0.1 0.4 0.425  0.125 0.4 0.425  0.15 0.4 0.425  0.175 0.4 0.425  0.2 0.4 0.425  0.225 0.4 0.4  0.225 0.4 0.425  0.25 0.4 0.4  0.25 0.4 0.425  0.275 0.4 0.425  0.3 0.4 0.425  0.325 0.4 0.425  0.025 0.425 0.425  0 0.425 0.425  0.05 0.425 0.425  0.075 0.425 0.425  0.1 0.425 0.425  0.125 0.425 0.425  0.15 0.425 0.425  0.175 0.425 0.425  0.2 0.425 0.4  0.2 0.425 0.425  0.225 0.425 0.4  0.225 0.425 0.425  0.25 0.425 0.425  0.275 0.425 0.425  0.025 0.45 0.425  0.05 0.45 0.425  0.075 0.45 0.425  0.1 0.45 0.425  0.125 0.45 0.425  0.15 0.45 0.4  0.15 0.45 0.425  0.175 0.45 0.4  0.175 0.45 0.425  0.2 0.45 0.425  0.225 0.45 0.425  0.25 0.45 0.425  0.025 0.475 0.425  0.05 0.475 0.425  0.075 0.475 0.425  0.1 0.475 0.425  0.125 0.475 0.4  0.125 0.475 0.425  0.15 0.475 0.4  0.15 0.475 0.425  0.175 0.475 0.4  0.175 0.475 0.425  0.2 0.475 0.425  0.075 0.5 0.425  0.1 0.5 0.425  0.125 0.5 0.425  0.15 0.5 0.425  0.175 0.5 0.425  0.2 0.5 0.425  0.3 0.275 0.45  0.3 0.25 0.45  0.275 0.275 0.45  0.325 0.275 0.45  0.325 0.25 0.45  0.35 0.275 0.45  0.1 0.3 0.45  0.125 0.3 0.45  0.15 0.3 0.45  0.175 0.3 0.45  0.175 0.275 0.45  0.2 0.3 0.45  0.2 0.275 0.45  0.225 0.3 0.45  0.225 0.275 0.45  0.25 0.3 0.45  0.25 0.275 0.45  0.275 0.3 0.45  0.3 0.3 0.45  0.325 0.3 0.45  0.35 0.3 0.45  0.375 0.3 0.45  0.025 0.325 0.45  0 0.3 0.45  0 0.325 0.45  0.05 0.325 0.45  0.075 0.325 0.45  0.075 0.3 0.45  0.1 0.325 0.45  0.125 0.325 0.45  0.15 0.325 0.45  0.175 0.325 0.45  0.2 0.325 0.45  0.225 0.325 0.45  0.25 0.325 0.45  0.275 0.325 0.45  0.3 0.325 0.45  0.325 0.325 0.45  0.35 0.325 0.45  0.375 0.325 0.45  0.4 0.325 0.45  0.025 0.35 0.45  0 0.35 0.45  0.05 0.35 0.45  0.075 0.35 0.45  0.1 0.35 0.45  0.125 0.35 0.45  0.15 0.35 0.45  0.175 0.35 0.45  0.2 0.35 0.45  0.225 0.35 0.45  0.25 0.35 0.45  0.275 0.35 0.45  0.3 0.35 0.45  0.325 0.35 0.45  0.35 0.35 0.45  0.375 0.35 0.45  0.4 0.325 0.425  0.4 0.35 0.425  0.4 0.35 0.45  0.425 0.35 0.45  0.025 0.375 0.45  0 0.375 0.45  0.05 0.375 0.45  0.075 0.375 0.45  0.1 0.375 0.45  0.125 0.375 0.45  0.15 0.375 0.45  0.175 0.375 0.45  0.2 0.375 0.45  0.225 0.375 0.45  0.25 0.375 0.45  0.275 0.375 0.45  0.3 0.375 0.45  0.325 0.375 0.45  0.35 0.375 0.45  0.375 0.375 0.45  0.4 0.375 0.425  0.4 0.375 0.45  0.425 0.375 0.45  0.025 0.4 0.45  0 0.4 0.45  0.05 0.4 0.45  0.075 0.4 0.45  0.1 0.4 0.45  0.125 0.4 0.45  0.15 0.4 0.45  0.175 0.4 0.45  0.2 0.4 0.45  0.225 0.4 0.45  0.25 0.4 0.45  0.275 0.4 0.45  0.3 0.4 0.45  0.325 0.4 0.45  0.35 0.4 0.425  0.35 0.4 0.45  0.375 0.4 0.425  0.375 0.4 0.45  0.4 0.4 0.45  0.425 0.4 0.45  0.025 0.425 0.45  0.05 0.425 0.45  0.075 0.425 0.45  0.1 0.425 0.45  0.125 0.425 0.45  0.15 0.425 0.45  0.175 0.425 0.45  0.2 0.425 0.45  0.225 0.425 0.45  0.25 0.425 0.45  0.275 0.425 0.45  0.3 0.425 0.45  0.325 0.425 0.425  0.325 0.425 0.45  0.35 0.425 0.425  0.35 0.425 0.45  0.375 0.425 0.425  0.375 0.425 0.45  0.4 0.425 0.45  0.025 0.45 0.45  0.05 0.45 0.45  0.075 0.45 0.45  0.1 0.45 0.45  0.125 0.45 0.45  0.15 0.45 0.45  0.175 0.45 0.45  0.2 0.45 0.45  0.225 0.45 0.45  0.25 0.45 0.45  0.275 0.45 0.45  0.3 0.45 0.45  0.35 0.45 0.45  0.375 0.45 0.45  0.4 0.45 0.45  0.05 0.475 0.45  0.075 0.475 0.45  0.1 0.475 0.45  0.125 0.475 0.45  0.15 0.475 0.45  0.175 0.475 0.45  0.2 0.475 0.45  0.225 0.475 0.425  0.225 0.475 0.45  0.25 0.475 0.45  0.275 0.475 0.45  0.075 0.5 0.45  0.1 0.5 0.45  0.125 0.5 0.45  0.15 0.5 0.45  0.175 0.5 0.45  0.2 0.5 0.45  0.225 0.5 0.45  0.25 0.5 0.45  0.125 0.525 0.45  0.15 0.525 0.425  0.15 0.525 0.45  0.125 0.525 0.425  0.175 0.525 0.425  0.175 0.525 0.45  0.2 0.525 0.45  0.225 0.525 0.45  0.15 0.55 0.425  0.15 0.55 0.45  0.175 0.55 0.425  0.175 0.55 0.45  0.2 0.55 0.45  0.175 0.575 0.45  0.2 0.575 0.45  0.3
[...]
<PointData  Scalars="f_11"> 
<DataArray  type="Float64"  Name="f_11"  format="ascii">3.0000000000000000e+02  3.0000000000000000e+02  3.0000000000000000e+02  2.9950166534317776e+02  2.9948107324622936e+02  3.0000000000000000e+02  2.9946697491124144e+02  3.0000000000000000e+02  2.9899226022620581e+02  2.9944852854595217e+02  3.0000000000000000e+02  3.0000000000000000e+02  2.9895567087837395e+02  2.9943281938872099e+02  3.0000000000000000e+02  2.9943590906985361e+02  2.9945509611797667e+02  3.0000000000000000e+02  3.0000000000000000e+02  2.9893061758457458e+02  2.9896867904572059e+02  2.9847918819479236e+02  2.9941954691702563e+02  3.0000000000000000e+02  2.9889814312875632e+02  2.9843104178677487e+02  2.9940570672037450e+02  3.0000000000000000e+02  2.9887066322091295e+02  2.9942538748149389e+02  2.9944520392400415e+02  3.0000000000000000e+02  3.0000000000000000e+02  2.9890972249745488e+02  2.9894903505945473e+02  2.9844817762873095e+02  2.9750821375011441e+02  2.9745288560491974e+02  2.9717910511653156e+02  2.9705448761958235e+02  2.9734320159756993e+02  2.9940846880923522e+02  3.0000000000000000e+02  2.9887614169120184e+02  2.9839838664705684e+02  2.9807688510260266e+02  2.9801367573102095e+02  2.9797074092063133e+02  2.9803611686413331e+02  2.9771923706294245e+02  2.9764171383901436e+02  2.9758896369545840e+02  2.9766915507984390e+02  2.9724907669518285e+02  2.9939414349928489e+02  3.0000000000000000e+02  2.9884769730121320e+02  2.9839027339605821e+02  2.9835618433188290e+02  2.9791528133622273e+02  2.9752086644518056e+02  2.9716905710125042e+02  2.9939414349928478e+02  2.9938216481283320e+02  3.0000000000000000e+02  3.0000000000000000e+02  2.9884769730121326e+02  2.9882390530612872e+02  2.9832086693937043e+02  2.9786883811055839e+02  2.9937233360824030e+02  3.0000000000000000e+02  3.0000000000000000e+02  2.9880437417062410e+02  2.9829186316223957e+02  2.9936449103706695e+02  3.0000000000000000e+02  3.0000000000000000e+02  2.9935851320803914e+02  3.0000000000000000e+02  3.0000000000000000e+02  2.9935430730917199e+02  3.0000000000000000e+02  2.9941677290191711e+02  2.9943711256990139e+02  3.0000000000000000e+02  3.0000000000000000e+02  2.9889261037595151e+02  2.9842277072993983e+02  2.9699934570452177e+02  2.9729486228342313e+02  2.9679957929436659e+02  2.9673812165127055e+02  2.9638037636445773e+02  2.9624175750657059e+02  2.9616528913060489e+02  2.9597939467759437e+02  2.9630785974346185e+02  2.9613105020676454e+02  2.9620834830370808e+02  2.9604352681377202e+02  2.9584973551247055e+02  2.9939939044412915e+02  3.0000000000000000e+02  2.9885810748381579e+02  2.9837160884656731e+02  2.9793551411575515e+02  2.9800269652421571e+02  2.9754565472604412e+02  2.9762807145112623e+02  2.9719811287877798e+02  2.9694739200829787e+02  2.9688924871649220e+02  2.9668052797268240e+02  2.9661571646875251e+02  2.9657537920096570e+02  2.9644541491385456e+02  2.9637447115657386e+02  2.9650811575373132e+02  2.9637911931491527e+02  2.9623929295505832e+02  2.9616276784012643e+02  2.9630657370643388e+02  2.9605970413913730e+02  2.9597815543154189e+02  2.9581846690920406e+02  2.9938465996413288e+02  3.0000000000000000e+02  2.9882885748721515e+02  2.9832820863817000e+02  2.9787847573041785e+02  2.9747561210393832e+02  2.9711579830276867e+02  2.9679546882941327e+02  2.9651132970807885e+02  2.9626036784323566e+02  2.9603985358810723e+02  2.9584733808690777e+02  2.9568064690544418e+02  2.9937233360824013e+02  3.0000000000000000e+02  2.9880437417062387e+02  2.9829186316223934e+02  2.9783067727223863e+02  2.9746379387947900e+02  2.9741686927430004e+02  2.9710193164823244e+02  2.9704670190722766e+02  2.9671667392250231e+02  2.9936221098752054e+02  3.0000000000000000e+02  2.9878426353858163e+02  2.9826199750913941e+02  2.9783067727223880e+02  2.9779138012657330e+02  2.9736854395347439e+02  2.9698981892642149e+02  2.9665175765217577e+02  2.9935413200366452e+02  3.0000000000000000e+02  2.9878879105128368e+02  2.9876821027933141e+02  2.9826871528319043e+02  2.9823815033807062e+02  2.9775998950945484e+02  2.9732992277944533e+02  2.9934797161618843e+02  3.0000000000000000e+02  2.9875596781619146e+02  2.9821996014397791e+02  2.9773603811410408e+02  2.9934363604379797e+02  3.0000000000000000e+02  2.9874735104430624e+02  2.9934106007263904e+02  2.9874223116222669e+02  2.9940991417922027e+02  3.0000000000000000e+02  2.9887898357107838e+02  2.9647307448528625e+02  2.9606917734699243e+02  2.9624985094688844e+02  2.9641865942471384e+02  2.9624854100307459e+02  2.9591410408993585e+02  2.9610408301003309e+02  2.9578144800449292e+02  2.9597951792574219e+02  2.9566959643131366e+02  2.9939215726186205e+02  3.0000000000000000e+02  2.9884373613081044e+02  2.9835026309937956e+02  2.9840253208618367e+02  2.9790742131027270e+02  2.9797606285551865e+02  2.9751109858401549e+02  2.9759531321978847e+02  2.9715742503567935e+02  2.9725629543768207e+02  2.9684279965313522e+02  2.9695532295660735e+02  2.9656390648980249e+02  2.9668902381711956e+02  2.9631772193849071e+02  2.9645434365679188e+02  2.9610151492274099e+02  2.9591284187952994e+02  2.9574953824056263e+02  2.9560970785544373e+02  2.9549171151220634e+02  2.9937709905635370e+02  3.0000000000000000e+02  2.9881383446988247e+02  2.9830589378659448e+02  2.9784910544937190e+02  2.9743948154813620e+02  2.9707325264954000e+02  2.9674689392327036e+02  2.9645714273804441e+02  2.9620100859187295e+02  2.9597577664041057e+02  2.9577900623607474e+02  2.9560852585998123e+02  2.9546242569015021e+02  2.9936449103706701e+02  3.0000000000000000e+02  2.9878879105128374e+02  2.9826871528319055e+02  2.9780020872525108e+02  2.9737938490818527e+02  2.9700255839315520e+02  2.9666627016417527e+02  2.9642353828479679e+02  2.9636730584840546e+02  2.9610270727057360e+02  2.9586977822963246e+02  2.9566608557990321e+02  2.9548945674303178e+02  2.9533797471788876e+02  2.9935413200366440e+02  3.0000000000000000e+02  2.9876821027933136e+02  2.9823815033807074e+02  2.9775998950945490e+02  2.9732992277944527e+02  2.9694433340788760e+02  2.9659981754717717e+02  2.9629320266811612e+02  2.9602156008782669e+02  2.9934586101039451e+02  3.0000000000000000e+02  2.9875177516857735e+02  2.9821373515409817e+02  2.9772784984195278e+02  2.9729037798204473e+02  2.9694433340788771e+02  2.9689775736954829e+02  2.9654662876810585e+02  2.9623385433446657e+02  2.9933955221732458e+02  3.0000000000000000e+02  2.9873923756206148e+02  2.9819510590280703e+02  2.9770331940369857e+02  2.9726018467167108e+02  2.9686218086030362e+02  2.9650598303000862e+02  2.9933511115741436e+02  3.0000000000000000e+02  2.9873041099864207e+02  2.9820715514047174e+02  2.9818198880142671e+02  2.9768604358223365e+02  2.9723891522304149e+02  2.9933247209367568e+02  2.9872516564182570e+02  2.9819954601245246e+02  2.9817419301019379e+02  2.9767577485326836e+02  2.9817160586042951e+02  2.9767236695387669e+02  2.9602189499218179e+02  2.9620554331018820e+02  2.9586418753445497e+02  2.9605731170250368e+02  2.9572921886509857e+02  2.9593058436612472e+02  2.9561537419165631e+02  2.9938664917321796e+02  3.0000000000000000e+02  2.9883279083971456e+02  2.9833400228559111e+02  2.9838712309768516e+02  2.9788601385369589e+02  2.9795577825557467e+02  2.9748475558039388e+02  2.9757035403382400e+02  2.9712639385701931e+02  2.9722689711019467e+02  2.9680735752094847e+02  2.9692174917884154e+02  2.9652435400252426e+02  2.9665156032133450e+02  2.9627437692497858e+02  2.9641329233442360e+02  2.9605470690139265e+02  2.9620421461394966e+02  2.9586290730513758e+02  2.9569681663160469e+02  2.9555453882066047e+02  2.9543443263976474e+02  2.9533510097651487e+02  2.9937133849168265e+02  3.0000000000000000e+02  2.9880238711969827e+02  2.9828888628121297e+02  2.9782671357336073e+02  2.9741192510523058e+02  2.9704078933557457e+02  2.9670981268755565e+02  2.9641575708730801e+02  2.9615565022067352e+02  2.9592678967791392e+02  2.9572674229945846e+02  2.9555334001290544e+02  2.9540467332849630e+02  2.9533904886041722e+02  2.9527908348985233e+02  2.9517515409520433e+02  2.9935851320803897e+02  3.0000000000000000e+02  2.9877691164282493e+02  2.9825106513691628e+02  2.9777696949386120e+02  2.9735078379765616e+02  2.9696886188253643e+02  2.9662777719316949e+02  2.9632434093704296e+02  2.9605561396459871e+02  2.9581891316999673e+02  2.9561181339346177e+02  2.9543214585780834e+02  2.9527799412815688e+02  2.9520997153631691e+02  2.9514768848333676e+02  2.9503979946026084e+02  2.9934797161618826e+02  3.0000000000000000e+02  2.9875596781619134e+02  2.9821996014397774e+02  2.9773603811410396e+02  2.9730044354166137e+02  2.9690960011270187e+02  2.9656013745359149e+02  2.9624890947986177e+02  2.9597300724844155e+02  2.9578221224503250e+02  2.9572976686249086e+02  2.9557273557472462e+02  2.9551677317829922e+02  2.9539095991658633e+02  2.9533186015343898e+02  2.9517310867984173e+02  2.9503884269201222e+02  2.9492762425326623e+02  2.9933955221732458e+02  3.0000000000000000e+02  2.9873923756206131e+02  2.9819510590280692e+02  2.9770331940369840e+02  2.9726018467167097e+02  2.9686218086030345e+02  2.9650598303000862e+02  2.9618848048809093e+02  2.9595653071587958e+02  2.9590679020883562e+02  2.9571199731079014e+02  2.9565826572747648e+02  2.9544050209994003e+02  2.9525133762768144e+02  2.9508885307930137e+02  2.9933312863569881e+02  3.0000000000000000e+02  2.9872647166423315e+02  2.9817613702779482e+02  2.9767834102552780e+02  2.9722943891042627e+02  2.9682595191201165e+02  2.9646459002306051e+02  2.9618848048809122e+02  2.9614227024912697e+02  2.9590679020883590e+02  2.9585613034977695e+02  2.9560353836827744e+02  2.9538209843750963e+02  2.9932860593688429e+02  2.9871748273705907e+02  2.9816277837539332e+02  2.9766074660020632e+02  2.9720777649712869e+02  2.9683711184641669e+02  2.9680041877279808e+02  2.9647733276755326e+02  2.9643540812608722e+02  2.9610968139611833e+02  2.9582039147636590e+02  2.9556491723348108e+02  2.9932591802349856e+02  2.9871214023090812e+02  2.9815483805534313e+02  2.9765028723778482e+02  2.9722627065735310e+02  2.9719489679984406e+02  2.9682220569211222e+02  2.9678523489791849e+02  2.9646029371701906e+02  2.9641805094446983e+02  2.9609029368269785e+02  2.9815220273792636e+02  2.9764681581536331e+02  2.9719062192347371e+02  2.9678019498446503e+02  2.9641228928479575e+02  2.9608385752414506e+02  2.9582899150486230e+02  2.9602434505646573e+02  2.9598856730458090e+02  2.9569238117365745e+02  2.9589608305100683e+02  2.9557712053374797e+02  2.9787095521063731e+02  2.9746621995168528e+02  2.9710455253253178e+02  2.9678240289070527e+02  2.9689811884100266e+02  2.9649649521066243e+02  2.9662518249076601e+02  2.9624383570197614e+02  2.9638437750926448e+02  2.9602171376666792e+02  2.9617298148491659e+02  2.9582769827136059e+02  2.9565963048409179e+02  2.9551561499549990e+02  2.9539400968538871e+02  2.9529341555554186e+02  2.9936728679181545e+02  3.0000000000000000e+02  3.0000000000000000e+02  2.9879433488572698e+02  2.9827692103835290e+02  2.9832256654080788e+02  2.9781095678850471e+02  2.9739252881352286e+02  2.9701793208996526e+02  2.9668369513640420e+02  2.9638659747447161e+02  2.9612368006344724e+02  2.9589224982205656e+02  2.9568987948833330e+02  2.9551440404819255e+02  2.9536391484861832e+02  2.9523675235184572e+02  2.9513149831664981e+02  2.9504696803190876e+02  2.9935430730917216e+02  3.0000000000000000e+02  2.9876855275727075e+02  2.9823864375852645e+02  2.9776061122302053e+02  2.9733064588387992e+02  2.9694512906896375e+02  2.9660065717456524e+02  2.9629405973263431e+02  2.9602241146774071e+02  2.9578303907975669e+02  2.9557352366992006e+02  2.9539169978203802e+02  2.9523565199523671e+02  2.9510370991515595e+02  2.9499444229469577e+02  2.9509170283330269e+02  2.9495313119953397e+02  2.9490665089271920e+02  2.9483936456143601e+02  2.9934363604379786e+02  3.0000000000000000e+02  2.9874735104430613e+02  2.9820715514047163e+02  2.9771917392077404e+02  2.9727968174948376e+02  2.9688513062184478e+02  2.9653217383490983e+02  2.9621768424463062e+02  2.9593876729359050e+02  2.9569276930115024e+02  2.9547728170135542e+02  2.9529014200598027e+02  2.9512943228276282e+02  2.9499347589648380e+02  2.9488083318474321e+02  2.9483824822027992e+02  2.9479029664814976e+02  2.9472088613805397e+02  2.9933511115741447e+02  3.0000000000000000e+02  2.9873041099864207e+02  2.9818198880142654e+02  2.9768604358223331e+02  2.9723891522304115e+02  2.9683711184641624e+02  2.9647733276755281e+02  2.9615648673710524e+02  2.9587170553539431e+02  2.9562035325400029e+02  2.9540003179191228e+02  2.9520858320300761e+02  2.9504408957216447e+02  2.9495136911760028e+02  2.9490487108533904e+02  2.9483744258132054e+02  2.9478948291116376e+02  2.9469671144240692e+02  2.9462557036609911e+02  2.9932860593688434e+02  2.9871748273705913e+02  2.9816277837539309e+02  2.9766074660020632e+02  2.9720777649712858e+02  2.9680041877279791e+02  2.9643540812608688e+02  2.9610968139611833e+02  2.9582039147636590e+02  2.9556491723348114e+02  2.9534086985346050e+02  2.9514609615432977e+02  2.9502428534268074e+02  2.9497867946049274e+02  2.9488431334080059e+02  2.9483693864081505e+02  2.9476829126874742e+02  2.9471942588344217e+02  2.9462492372738342e+02  2.9932402514890788e+02  2.9870837828267463e+02  2.9814924784863382e+02  2.9764292546563257e+02  2.9718583444612983e+02  2.9677455533380152e+02  2.9640584785409396e+02  2.9607666895766482e+02  2.9578418690636602e+02  2.9552579158213837e+02  2.9529910137599029e+02  2.9510196713281192e+02  2.9478893958042744e+02  2.9466991540202355e+02  2.9457418141569929e+02  2.9870296662540125e+02  2.9814120465261368e+02  2.9763233040689568e+02  2.9717278737110354e+02  2.9675917375299287e+02  2.9638826418275727e+02  2.9605702768128657e+02  2.9579912518408111e+02  2.9576264182896267e+02  2.9550250328450898e+02  2.9527423497529662e+02  2.9813853502841062e+02  2.9762881374276208e+02  2.9716845670056239e+02  2.9675406794571109e+02  2.9638242704519746e+02  2.9605050703104467e+02  2.9575548859403023e+02  2.9549477066903808e+02  2.9717278332992851e+02  2.9678523105029802e+02  2.9675916966277691e+02  2.9719489299432615e+02  2.9641804720857749e+02  2.9638826020431617e+02  2.9605702393577803e+02  2.9576263840131617e+02  2.9680041114423932e+02  2.9677454722214230e+02  2.9643540073020637e+02  2.9640583997530848e+02  2.9607666155122365e+02  2.9643539650375396e+02  2.9610967049811541e+02  2.9567046476231428e+02  2.9587556134735820e+02  2.9600474010914127e+02  2.9580805588183807e+02  2.9555435774149521e+02  2.9647993524935191e+02  2.9622567697269562e+02  2.9600209267403295e+02  2.9580675471749515e+02  2.9596874725908503e+02  2.9615441130915366e+02  2.9563750625677244e+02  2.9549245249839345e+02  2.9536995100521204e+02  2.9526860184404677e+02  2.9936488046964945e+02  3.0000000000000000e+02  2.9780159609382849e+02  2.9786201139674387e+02  2.9826981377385169e+02  2.9738100401523172e+02  2.9745520911478451e+02  2.9700434820246159e+02  2.9709157537204345e+02  2.9666817032992253e+02  2.9676757266828986e+02  2.9636926048423084e+02  2.9610466768568466e+02  2.9587170461298814e+02  2.9566794774814662e+02  2.9549123413882046e+02  2.9533965586457958e+02  2.9521155313965602e+02  2.9510550682062893e+02  2.9502033093224901e+02  2.9935180885796029e+02  3.0000000000000000e+02  2.9876358703998909e+02  2.9823126396403279e+02  2.9775089114156361e+02  2.9731867794342611e+02  2.9693102196603144e+02  2.9658453327231047e+02  2.9627605239545466e+02  2.9600266248195896e+02  2.9576169627986229e+02  2.9555073885528043e+02  2.9536762697491878e+02  2.9521044606077055e+02  2.9507752553939940e+02  2.9496743329864273e+02  2.9487896984764609e+02  2.9481116266330491e+02  2.9934106007263910e+02  3.0000000000000000e+02  2.9874223116222646e+02  2.9819954601245212e+02  2.9770915138745050e+02  2.9726734082416982e+02  2.9687058307198805e+02  2.9651554552366730e+02  2.9619911240497112e+02  2.9591839788755595e+02  2.9567075458651476e+02  2.9545377809289283e+02  2.9526530828392009e+02  2.9510342817022854e+02  2.9496646100264536e+02  2.9485296629164333e+02  2.9476173530623788e+02  2.9469178652748184e+02  2.9933247209367585e+02  3.0000000000000000e+02  2.9872516564182558e+02  2.9817419301019362e+02  2.9767577485326785e+02  2.9722627065735264e+02  2.9682220569211188e+02  2.9646029371701866e+02  2.9613745515342112e+02  2.9585083076299406e+02  2.9559779113797566e+02  2.9537594249499801e+02  2.9518312937422422e+02  2.9501743488986176e+02  2.9487717917189201e+02  2.9476091659738489e+02  2.9466743234648953e+02  2.9459573874363537e+02  2.9454507176613532e+02  2.9932591802349873e+02  2.9871214023090795e+02  2.9815483805534285e+02  2.9765028723778460e+02  2.9719489679984372e+02  2.9678523489791814e+02  2.9641805094446926e+02  2.9609029368269717e+02  2.9579912518408054e+02  2.9554193097666098e+02  2.9531632669107989e+02  2.9512016172818340e+02  2.9495152051177672e+02  2.9480872190277552e+02  2.9469031732827358e+02  2.9459508813203985e+02  2.9452204259123346e+02  2.9447041297491216e+02  2.9870296662540125e+02  2.9814120465261368e+02  2.9763233040689539e+02  2.9717278737110325e+02  2.9675917375299258e+02  2.9638826418275704e+02  2.9605702768128617e+02  2.9576264182896250e+02  2.9550250328450898e+02  2.9527423497529639e+02  2.9507569039928956e+02  2.9493247369181734e+02  2.9490495554663408e+02  2.9476034897265629e+02  2.9464042054300086e+02  2.9454394933534752e+02  2.9446994112916252e+02  2.9813309985533886e+02  2.9762165409750213e+02  2.9715964007749642e+02  2.9674367379461569e+02  2.9637054489767456e+02  2.9603723457697907e+02  2.9574092981554105e+02  2.9547903411814218e+02  2.9524917500379740e+02  2.9504920866610684e+02  2.9487722227758439e+02  2.9473153444354364e+02  2.9461069430646597e+02  2.9451347977146827e+02  2.9443889527560469e+02  2.9761811031585592e+02  2.9715527596898056e+02  2.9673852850068255e+02  2.9636466253371236e+02  2.9603066330190512e+02  2.9573372092618325e+02  2.9547124121020164e+02  2.9526597772208834e+02  2.9524085322979187e+02  2.9504041410923577e+02  2.9715963581171496e+02  2.9674366947251627e+02  2.9637054068661774e+02  2.9603723060273842e+02  2.9574092616606254e+02  2.9547903084847991e+02  2.9524917214171649e+02  2.9504920621791513e+02  2.9675916517950367e+02  2.9638825584076017e+02  2.9605701981941263e+02  2.9578418013905150e+02  2.9576263461996734e+02  2.9550249683540733e+02  2.9641803863246645e+02  2.9609028210672295e+02  2.9579911459536396e+02  2.9554192152799135e+02  2.9613744012432085e+02  2.9585081706378185e+02  2.9566319002247343e+02  2.9580110726725616e+02  2.9554680150735555e+02  2.9579980328475835e+02  2.9596216949599790e+02  2.9563016230699003e+02  2.9548476328897794e+02  2.9536196372090910e+02  2.9526036338894750e+02  2.9737718026773859e+02  2.9779849051604248e+02  2.9699984098903730e+02  2.9708727000394128e+02  2.9666301871390959e+02  2.9676265212395680e+02  2.9636350704260508e+02  2.9647444030802944e+02  2.9609835768947727e+02  2.9621965097048235e+02  2.9586488527201976e+02  2.9599558077714551e+02  2.9566066754724420e+02  2.9548354228198218e+02  2.9533160183397428e+02  2.9520318636852289e+02  2.9509687647326098e+02  2.9501148578018012e+02  2.9935097986637646e+02  3.0000000000000000e+02  2.9876193943335147e+02  2.9774766594882709e+02  2.9731470671306431e+02  2.9692634062714319e+02  2.9657918228244000e+02  2.9627007587023957e+02  2.9599610735083934e+02  2.9575461150692479e+02  2.9554317475333983e+02  2.9535963462998723e+02  2.9520207687425415e+02  2.9506883088730831e+02  2.9495846430101534e+02  2.9486977723715682e+02  2.9480179673938147e+02  2.9934020526074789e+02  3.0000000000000000e+02  2.9874053221411839e+02  2.9819702104454751e+02  2.9822881536165426e+02  2.9770582549146394e+02  2.9726324541555499e+02  2.9686575510281324e+02  2.9651002661620720e+02  2.9619294796154014e+02  2.9591163622607570e+02  2.9566344614179246e+02  2.9544597471247016e+02  2.9525706263621544e+02  2.9509479327269958e+02  2.9495748986945506e+02  2.9484371169406757e+02  2.9475224963467878e+02  2.9468212174119077e+02  2.9933159625726699e+02  2.9872342488889728e+02  2.9817160586042928e+02  2.9767236695387624e