<?xml version="1.0"?>
<VTKFile type="UnstructuredGrid"  version="0.1"  >
<UnstructuredGrid>
<Piece  NumberOfPoints="7451" NumberOfCells="37868">
<Points>
<DataArray  type="Float64"  NumberOfComponents="3"  format="ascii">0 0.45 0.35  0 0.45 0.375  0 0.475 0.375  0.025 0.475 0.375  0.025 0.475 0.4  0 0.45 0.4  0 0.475 0.4  0.025 0.5 0.4  0 0.5 0.4  0 0.5 0.375  0.05 0.475 0.375  0.05 0.475 0.4  0.05 0.5 0.4  0.075 0.5 0.4  0.025 0.525 0.4  0 0.525 0.4  0 0.525 0.375  0.025 0.55 0.4  0 0.55 0.4  0 0.55 0.375  0.025 0.575 0.4  0 0.575 0.4  0 0.575 0.375  0.025 0.6 0.4  0 0.6 0.4  0 0.6 0.375  0.025 0.625 0.4  0 0.625 0.4  0 0.425 0.4  0 0.425 0.425  0 0.45 0.425  0.025 0.45 0.425  0.025 0.475 0.425  0 0.475 0.425  0.025 0.5 0.425  0 0.5 0.425  0.05 0.5 0.425  0.05 0.475 0.425  0.075 0.5 0.425  0.025 0.525 0.425  0 0.525 0.425  0.05 0.525 0.4  0.05 0.525 0.425  0.075 0.525 0.4  0.075 0.525 0.425  0.1 0.5 0.4  0.1 0.525 0.4  0.1 0.525 0.425  0.1 0.5 0.425  0.125 0.5 0.425  0.125 0.525 0.425  0.025 0.55 0.425  0 0.55 0.425  0.05 0.55 0.4  0.05 0.55 0.425  0.075 0.55 0.4  0.075 0.55 0.425  0.1 0.55 0.4  0.1 0.55 0.425  0.125 0.55 0.425  0.025 0.575 0.425  0 0.575 0.425  0.05 0.575 0.4  0.05 0.575 0.425  0.075 0.575 0.4  0.075 0.575 0.425  0.1 0.575 0.425  0.125 0.575 0.425  0.025 0.6 0.425  0 0.6 0.425  0.05 0.6 0.4  0.05 0.6 0.425  0.075 0.6 0.425  0.1 0.6 0.425  0.025 0.625 0.425  0 0.625 0.425  0.05 0.625 0.425  0.075 0.625 0.425  0.025 0.65 0.425  0 0.65 0.425  0 0.65 0.4  0.05 0.65 0.425  0.025 0.675 0.425  0 0.675 0.425  0 0.4 0.425  0 0.4 0.45  0 0.425 0.45  0.025 0.425 0.45  0.025 0.45 0.45  0 0.45 0.45  0.025 0.475 0.45  0 0.475 0.45  0.05 0.45 0.45  0.05 0.475 0.45  0.025 0.5 0.45  0 0.5 0.45  0.05 0.5 0.45  0.075 0.475 0.45  0.075 0.5 0.45  0.025 0.525 0.45  0 0.525 0.45  0.05 0.525 0.45  0.075 0.525 0.45  0.1 0.525 0.45  0.1 0.5 0.45  0.125 0.525 0.45  0.025 0.55 0.45  0 0.55 0.45  0.05 0.55 0.45  0.075 0.55 0.45  0.1 0.55 0.45  0.125 0.55 0.45  0.15 0.55 0.425  0.15 0.55 0.45  0.025 0.575 0.45  0 0.575 0.45  0.05 0.575 0.45  0.075 0.575 0.45  0.1 0.575 0.45  0.125 0.575 0.45  0.15 0.575 0.425  0.15 0.575 0.45  0.175 0.575 0.45  0.025 0.6 0.45  0 0.6 0.45  0.05 0.6 0.45  0.075 0.6 0.45  0.1 0.6 0.45  0.125 0.6 0.45  0.15 0.6 0.45  0.175 0.6 0.45  0.025 0.625 0.45  0 0.625 0.45  0.05 0.625 0.45  0.075 0.625 0.45  0.1 0.625 0.45  0.125 0.625 0.45  0.025 0.65 0.45  0 0.65 0.45  0.05 0.65 0.45  0.075 0.65 0.45  0.1 0.65 0.45  0.025 0.675 0.45  0 0.675 0.45  0.05 0.675 0.45  0.075 0.675 0.45  0.025 0.7 0.45  0 0.7 0.45  0 0.7 0.425  0.05 0.7 0.45  0.025 0.725 0.45  0 0.725 0.45  0.025 0.425 0.475  0 0.4 0.475  0 0.425 0.475  0.025 0.45 0.475  0 0.45 0.475  0.05 0.45 0.475  0.025 0.475 0.475  0 0.475 0.475  0.05 0.475 0.475  0.075 0.475 0.475  0.025 0.5 0.475  0 0.5 0.475  0.05 0.5 0.475  0.075 0.5 0.475  0.1 0.5 0.475  0.025 0.525 0.475  0 0.525 0.475  0.05 0.525 0.475  0.075 0.525 0.475  0.1 0.525 0.475  0.125 0.525 0.475  0.025 0.55 0.475  0 0.55 0.475  0.05 0.55 0.475  0.075 0.55 0.475  0.1 0.55 0.475  0.125 0.55 0.475  0.15 0.55 0.475  0.025 0.575 0.475  0 0.575 0.475  0.05 0.575 0.475  0.075 0.575 0.475  0.1 0.575 0.475  0.125 0.575 0.475  0.15 0.575 0.475  0.175 0.575 0.475  0.025 0.6 0.475  0 0.6 0.475  0.05 0.6 0.475  0.075 0.6 0.475  0.1 0.6 0.475  0.125 0.6 0.475  0.15 0.6 0.475  0.175 0.6 0.475  0.2 0.6 0.475  0.025 0.625 0.475  0 0.625 0.475  0.05 0.625 0.475  0.075 0.625 0.475  0.1 0.625 0.475  0.125 0.625 0.475  0.15 0.625 0.475  0.175 0.625 0.475  0.2 0.625 0.475  0.025 0.65 0.475  0 0.65 0.475  0.05 0.65 0.475  0.075 0.65 0.475  0.1 0.65 0.475  0.125 0.65 0.45  0.125 0.65 0.475  0.15 0.65 0.475  0.025 0.675 0.475  0 0.675 0.475  0.05 0.675 0.475  0.075 0.675 0.475  0.1 0.675 0.475  0.125 0.675 0.475  0.15 0.675 0.475  0.025 0.7 0.475  0 0.7 0.475  0.05 0.7 0.475  0.075 0.7 0.475  0.1 0.7 0.475  0.025 0.725 0.475  0 0.725 0.475  0.05 0.725 0.475  0.075 0.725 0.475  0.025 0.75 0.45  0.025 0.75 0.475  0 0.75 0.45  0 0.75 0.475  0.05 0.75 0.475  0.025 0.775 0.475  0 0.775 0.475  0 0.775 0.45  0.05 0.775 0.475  0.025 0.8 0.475  0 0.8 0.475  0 0.375 0.475  0 0.375 0.5  0 0.4 0.5  0.025 0.4 0.5  0.025 0.425 0.5  0 0.425 0.5  0.025 0.45 0.5  0 0.45 0.5  0.05 0.425 0.5  0.05 0.45 0.5  0.025 0.475 0.5  0 0.475 0.5  0.05 0.475 0.5  0.075 0.475 0.5  0.025 0.5 0.5  0 0.5 0.5  0.05 0.5 0.5  0.075 0.5 0.5  0.1 0.5 0.5  0.025 0.525 0.5  0 0.525 0.5  0.05 0.525 0.5  0.075 0.525 0.5  0.1 0.525 0.5  0.125 0.525 0.5  0.025 0.55 0.5  0 0.55 0.5  0.05 0.55 0.5  0.075 0.55 0.5  0.1 0.55 0.5  0.125 0.55 0.5  0.15 0.55 0.5  0.025 0.575 0.5  0 0.575 0.5  0.05 0.575 0.5  0.075 0.575 0.5  0.1 0.575 0.5  0.125 0.575 0.5  0.15 0.575 0.5  0.175 0.575 0.5  0.025 0.6 0.5  0 0.6 0.5  0.05 0.6 0.5  0.075 0.6 0.5  0.1 0.6 0.5  0.125 0.6 0.5  0.15 0.6 0.5  0.175 0.6 0.5  0.2 0.6 0.5  0.025 0.625 0.5  0 0.625 0.5  0.05 0.625 0.5  0.075 0.625 0.5  0.1 0.625 0.5  0.125 0.625 0.5  0.15 0.625 0.5  0.175 0.625 0.5  0.2 0.625 0.5  0.225 0.625 0.5  0.025 0.65 0.5  0 0.65 0.5  0.05 0.65 0.5  0.075 0.65 0.5  0.1 0.65 0.5  0.125 0.65 0.5  0.15 0.65 0.5  0.175 0.65 0.475  0.175 0.65 0.5  0.2 0.65 0.475  0.2 0.65 0.5  0.225 0.65 0.5  0.025 0.675 0.5  0 0.675 0.5  0.05 0.675 0.5  0.075 0.675 0.5  0.1 0.675 0.5  0.125 0.675 0.5  0.15 0.675 0.5  0.175 0.675 0.475  0.175 0.675 0.5  0.2 0.675 0.5  0.225 0.675 0.5  0.025 0.7 0.5  0 0.7 0.5  0.05 0.7 0.5  0.075 0.7 0.5  0.1 0.7 0.5  0.125 0.7 0.475  0.125 0.7 0.5  0.15 0.7 0.475  0.15 0.7 0.5  0.175 0.7 0.5  0.2 0.7 0.5  0.025 0.725 0.5  0 0.725 0.5  0.05 0.725 0.5  0.075 0.725 0.5  0.1 0.725 0.475  0.1 0.725 0.5  0.125 0.725 0.5  0.15 0.725 0.5  0.175 0.725 0.5  0.025 0.75 0.5  0 0.75 0.5  0.05 0.75 0.5  0.075 0.75 0.475  0.075 0.75 0.5  0.1 0.75 0.475  0.1 0.75 0.5  0.125 0.75 0.5  0.025 0.775 0.5  0 0.775 0.5  0.05 0.775 0.5  0.075 0.775 0.475  0.075 0.775 0.5  0.1 0.775 0.475  0.1 0.775 0.5  0.125 0.775 0.5  0.025 0.8 0.5  0 0.8 0.5  0.05 0.8 0.5  0.075 0.8 0.5  0.1 0.8 0.5  0.125 0.8 0.5  0.025 0.825 0.475  0.025 0.825 0.5  0 0.825 0.475  0 0.825 0.5  0.05 0.825 0.5  0.025 0.85 0.475  0.025 0.85 0.5  0 0.85 0.475  0 0.85 0.5  0.05 0.85 0.5  0.025 0.875 0.5  0 0.875 0.5  0 0.875 0.475  0.05 0.875 0.5  0.025 0.9 0.5  0 0.9 0.5  0 0.9 0.475  0.025 0.925 0.5  0 0.925 0.5  0.025 0.4 0.525  0 0.375 0.525  0 0.4 0.525  0.025 0.425 0.525  0 0.425 0.525  0.05 0.425 0.525  0.025 0.45 0.525  0 0.45 0.525  0.05 0.45 0.525  0.075 0.45 0.525  0.025 0.475 0.525  0 0.475 0.525  0.05 0.475 0.525  0.075 0.475 0.525  0.025 0.5 0.525  0 0.5 0.525  0.05 0.5 0.525  0.075 0.5 0.525  0.1 0.475 0.525  0.1 0.5 0.525  0.025 0.525 0.525  0 0.525 0.525  0.05 0.525 0.525  0.075 0.525 0.525  0.1 0.525 0.525  0.125 0.5 0.525  0.125 0.525 0.525  0.025 0.55 0.525  0 0.55 0.525  0.05 0.55 0.525  0.075 0.55 0.525  0.1 0.55 0.525  0.125 0.55 0.525  0.15 0.525 0.525  0.15 0.55 0.525  0.025 0.575 0.525  0 0.575 0.525  0.05 0.575 0.525  0.075 0.575 0.525  0.1 0.575 0.525  0.125 0.575 0.525  0.15 0.575 0.525  0.175 0.575 0.525  0.025 0.6 0.525  0 0.6 0.525  0.05 0.6 0.525  0.075 0.6 0.525  0.1 0.6 0.525  0.125 0.6 0.525  0.15 0.6 0.525  0.175 0.6 0.525  0.2 0.6 0.525  0.025 0.625 0.525  0 0.625 0.525  0.05 0.625 0.525  0.075 0.625 0.525  0.1 0.625 0.525  0.125 0.625 0.525  0.15 0.625 0.525  0.175 0.625 0.525  0.2 0.625 0.525  0.225 0.625 0.525  0.025 0.65 0.525  0 0.65 0.525  0.05 0.65 0.525  0.075 0.65 0.525  0.1 0.65 0.525  0.125 0.65 0.525  0.15 0.65 0.525  0.175 0.65 0.525  0.2 0.65 0.525  0.225 0.65 0.525  0.25 0.625 0.5  0.25 0.65 0.5  0.25 0.65 0.525  0.25 0.625 0.525  0.275 0.625 0.5  0.275 0.65 0.5  0.275 0.65 0.525  0.3 0.625 0.5  0.3 0.65 0.5  0.3 0.65 0.525  0.325 0.65 0.525  0.025 0.675 0.525  0 0.675 0.525  0.05 0.675 0.525  0.075 0.675 0.525  0.1 0.675 0.525  0.125 0.675 0.525  0.15 0.675 0.525  0.175 0.675 0.525  0.2 0.675 0.525  0.225 0.675 0.525  0.25 0.675 0.5  0.25 0.675 0.525  0.275 0.675 0.5  0.275 0.675 0.525  0.3 0.675 0.525  0.325 0.675 0.525  0.025 0.7 0.525  0 0.7 0.525  0.05 0.7 0.525  0.075 0.7 0.525  0.1 0.7 0.525  0.125 0.7 0.525  0.15 0.7 0.525  0.175 0.7 0.525  0.2 0.7 0.525  0.225 0.7 0.525  0.25 0.7 0.525  0.275 0.7 0.525  0.3 0.7 0.525  0.025 0.725 0.525  0 0.725 0.525  0.05 0.725 0.525  0.075 0.725 0.525  0.1 0.725 0.525  0.125 0.725 0.525  0.15 0.725 0.525  0.175 0.725 0.525  0.2 0.725 0.5  0.2 0.725 0.525  0.225 0.725 0.525  0.025 0.75 0.525  0 0.75 0.525  0.05 0.75 0.525  0.075 0.75 0.525  0.1 0.75 0.525  0.125 0.75 0.525  0.15 0.75 0.5  0.15 0.75 0.525  0.175 0.75 0.5  0.175 0.75 0.525  0.2 0.75 0.525  0.225 0.75 0.525  0.025 0.775 0.525  0 0.775 0.525  0.05 0.775 0.525  0.075 0.775 0.525  0.1 0.775 0.525  0.125 0.775 0.525  0.15 0.775 0.5  0.15 0.775 0.525  0.175 0.775 0.525  0.2 0.775 0.525  0.025 0.8 0.525  0 0.8 0.525  0.05 0.8 0.525  0.075 0.8 0.525  0.1 0.8 0.525  0.125 0.8 0.525  0.15 0.8 0.5  0.15 0.8 0.525  0.175 0.8 0.525  0.025 0.825 0.525  0 0.825 0.525  0.05 0.825 0.525  0.075 0.825 0.5  0.075 0.825 0.525  0.1 0.825 0.5  0.1 0.825 0.525  0.125 0.825 0.525  0.15 0.825 0.525  0.175 0.825 0.525  0.025 0.85 0.525  0 0.85 0.525  0.05 0.85 0.525  0.075 0.85 0.5  0.075 0.85 0.525  0.1 0.85 0.5  0.1 0.85 0.525  0.125 0.85 0.525  0.025 0.875 0.525  0 0.875 0.525  0.05 0.875 0.525  0.075 0.875 0.5  0.075 0.875 0.525  0.1 0.875 0.525  0.125 0.875 0.525  0.025 0.9 0.525  0 0.9 0.525  0.05 0.9 0.5  0.05 0.9 0.525  0.075 0.9 0.525  0.1 0.9 0.525  0.025 0.925 0.525  0 0.925 0.525  0.05 0.925 0.525  0.075 0.925 0.525  0.025 0.95 0.525  0 0.95 0.525  0 0.95 0.5  0.05 0.95 0.525  0.025 0.975 0.525  0 0.975 0.525  0 0.975 0.5  0.025 1 0.525  0 1 0.525  0 1 0.5  0 0.35 0.525  0 0.35 0.55  0 0.375 0.55  0.025 0.375 0.55  0.025 0.4 0.55  0 0.4 0.55  0.025 0.425 0.55  0 0.425 0.55  0.05 0.4 0.55  0.05 0.425 0.55  0.025 0.45 0.55  0 0.45 0.55  0.05 0.45 0.55  0.075 0.425 0.55  0.075 0.45 0.55  0.025 0.475 0.55  0 0.475 0.55  0.05 0.475 0.55  0.075 0.475 0.55  0.1 0.45 0.55  0.1 0.475 0.55  0.025 0.5 0.55 
[...]
<PointData  Scalars="f_11"> 
<DataArray  type="Float64"  Name="f_11"  format="ascii">3.0000000000000000e+02  3.0000000000000000e+02  3.0000000000000000e+02  2.9934106007263904e+02  2.9933247209367568e+02  3.0000000000000000e+02  3.0000000000000000e+02  2.9933159625726694e+02  3.0000000000000000e+02  3.0000000000000000e+02  2.9874223116222669e+02  2.9872516564182570e+02  2.9872342488889745e+02  2.9817160586042951e+02  2.9933247083715969e+02  3.0000000000000000e+02  3.0000000000000000e+02  2.9933510865087356e+02  3.0000000000000000e+02  3.0000000000000000e+02  2.9933954847388435e+02  3.0000000000000000e+02  3.0000000000000000e+02  2.9934585605011529e+02  3.0000000000000000e+02  3.0000000000000000e+02  2.9935412585404322e+02  3.0000000000000000e+02  3.0000000000000000e+02  3.0000000000000000e+02  3.0000000000000000e+02  2.9932860593688429e+02  2.9932591802349856e+02  3.0000000000000000e+02  2.9932502590007221e+02  3.0000000000000000e+02  2.9871036709452420e+02  2.9871214023090812e+02  2.9815220273792636e+02  2.9932591667844940e+02  3.0000000000000000e+02  2.9872516342281210e+02  2.9871213785820117e+02  2.9817419010464602e+02  2.9815483495062136e+02  2.9767236695387669e+02  2.9767577151113647e+02  2.9765028366715887e+02  2.9764681581536331e+02  2.9719062192347371e+02  2.9719489299432615e+02  2.9932860325372121e+02  3.0000000000000000e+02  2.9873040657675153e+02  2.9871747800867553e+02  2.9818198301826868e+02  2.9816277219520344e+02  2.9768603693867993e+02  2.9766073950135001e+02  2.9720776894132626e+02  2.9933312462847118e+02  3.0000000000000000e+02  2.9873923096993491e+02  2.9872646461466542e+02  2.9819509729851256e+02  2.9817612783132751e+02  2.9767833048408789e+02  2.9722942771570030e+02  2.9933954690757304e+02  3.0000000000000000e+02  2.9875176645613254e+02  2.9873922824416610e+02  2.9819509378060172e+02  2.9770330555032353e+02  2.9934796503355659e+02  3.0000000000000000e+02  2.9875595630263950e+02  2.9821994522016399e+02  2.9935850539119235e+02  3.0000000000000000e+02  3.0000000000000000e+02  2.9877689802823261e+02  2.9937132948963415e+02  3.0000000000000000e+02  3.0000000000000000e+02  3.0000000000000000e+02  3.0000000000000000e+02  2.9932860593688434e+02  2.9932402514890788e+02  3.0000000000000000e+02  2.9932130246342683e+02  3.0000000000000000e+02  2.9870837828267463e+02  2.9870296662540125e+02  2.9932039873784532e+02  3.0000000000000000e+02  2.9870117042275905e+02  2.9814120465261368e+02  2.9813853502841062e+02  2.9932130103385504e+02  3.0000000000000000e+02  2.9870296410575833e+02  2.9814120135713989e+02  2.9763232661696946e+02  2.9762881374276208e+02  2.9717278332992851e+02  2.9932402229715444e+02  3.0000000000000000e+02  2.9870837326131431e+02  2.9814924128823651e+02  2.9764291792981390e+02  2.9718582642091837e+02  2.9680041114423932e+02  2.9677454722214230e+02  2.9932860167794405e+02  3.0000000000000000e+02  2.9871747525032742e+02  2.9816276861193677e+02  2.9766073540750938e+02  2.9720776460314829e+02  2.9682594063665420e+02  2.9680040677811394e+02  2.9643539650375396e+02  2.9933510551433289e+02  3.0000000000000000e+02  2.9873040110232932e+02  2.9818197592966186e+02  2.9768602886858662e+02  2.9723889963568536e+02  2.9683709617849109e+02  2.9647731763830478e+02  2.9934362904839190e+02  3.0000000000000000e+02  2.9874733881528374e+02  2.9820713929051567e+02  2.9771915587201710e+02  2.9727966270729263e+02  2.9935429900308941e+02  3.0000000000000000e+02  2.9876853829587037e+02  2.9823862509940790e+02  2.9776059007908884e+02  2.9936727722804113e+02  3.0000000000000000e+02  2.9879431831906714e+02  2.9827689978285429e+02  2.9938276573891619e+02  3.0000000000000000e+02  3.0000000000000000e+02  2.9882507609283721e+02  2.9940101365656460e+02  3.0000000000000000e+02  2.9932591802349873e+02  3.0000000000000000e+02  3.0000000000000000e+02  2.9932130246342683e+02  3.0000000000000000e+02  2.9870296662540125e+02  2.9931855895370336e+02  3.0000000000000000e+02  2.9869751355852236e+02  2.9813309985533886e+02  2.9931764826939252e+02  3.0000000000000000e+02  2.9869570352478780e+02  2.9813040966435216e+02  2.9761811031585592e+02  2.9931855744412121e+02  3.0000000000000000e+02  2.9869751089963972e+02  2.9813309637883793e+02  2.9762165009905743e+02  2.9715963581171496e+02  2.9932129945209869e+02  3.0000000000000000e+02  2.9870296132642687e+02  2.9814119773139879e+02  2.9763232245558362e+02  2.9717277889845758e+02  2.9675916517950367e+02  2.9932591352634523e+02  3.0000000000000000e+02  2.9871213232997638e+02  2.9815482775382685e+02  2.9765027542579600e+02  2.9719488423925429e+02  2.9678522221542977e+02  2.9641803863246645e+02  2.9933246613521590e+02  3.0000000000000000e+02  2.9872515519755706e+02  2.9817417942714081e+02  2.9767575932151402e+02  2.9722625418992658e+02  2.9682218911660664e+02  2.9646027767808943e+02  2.9613744012432085e+02  2.9934105268680855e+02  3.0000000000000000e+02  2.9874221825553923e+02  2.9819952928368855e+02  2.9770913232882492e+02  2.9726732069650404e+02  2.9687056289583398e+02  2.9651552608483803e+02  2.9619909427164094e+02  2.9935180008930746e+02  3.0000000000000000e+02  2.9876357177671144e+02  2.9823124426629107e+02  2.9775086880547087e+02  2.9733062369261097e+02  2.9731865447204552e+02  2.9693099856152816e+02  2.9936487037500831e+02  3.0000000000000000e+02  2.9878953489672193e+02  2.9826979132999332e+02  2.9780157079214143e+02  2.9738097759215498e+02  2.9700432202591657e+02  2.9938046571281006e+02  3.0000000000000000e+02  2.9882050512534147e+02  2.9831575052575437e+02  2.9786198351137182e+02  2.9939883531542915e+02  3.0000000000000000e+02  2.9885697135316946e+02  2.9836983267862627e+02  2.9942232684589487e+02  2.9942028504195326e+02  3.0000000000000000e+02  3.0000000000000000e+02  2.9889953175266317e+02  2.9944519099484819e+02  3.0000000000000000e+02  3.0000000000000000e+02  2.9894891878973607e+02  2.9947401929379981e+02  3.0000000000000000e+02  3.0000000000000000e+02  3.0000000000000000e+02  3.0000000000000000e+02  2.9933159625726699e+02  2.9932502590007209e+02  3.0000000000000000e+02  2.9932039873784510e+02  3.0000000000000000e+02  2.9871036709452403e+02  2.9870117042275882e+02  2.9931764826939224e+02  3.0000000000000000e+02  2.9869570352478775e+02  2.9813040966435204e+02  2.9931673524344950e+02  3.0000000000000000e+02  2.9869388884299201e+02  2.9812771256972434e+02  2.9761455744088966e+02  2.9931764668474716e+02  3.0000000000000000e+02  2.9869570073518713e+02  2.9813040601770507e+02  2.9761810612109093e+02  2.9715527149124910e+02  2.9932039557680969e+02  3.0000000000000000e+02  2.9870116486315038e+02  2.9813852776803662e+02  2.9762880540021217e+02  2.9716844780561865e+02  2.9675405893505763e+02  2.9932502117943562e+02  3.0000000000000000e+02  2.9871035880470140e+02  2.9815219193057851e+02  2.9764680342010837e+02  2.9719060873353419e+02  2.9678018165065339e+02  2.9641227631733813e+02  2.9933159000293011e+02  3.0000000000000000e+02  2.9872341393010902e+02  2.9817159160856573e+02  2.9767235065137498e+02  2.9722205682282902e+02  2.9681724086368041e+02  2.9645462112737948e+02  2.9613112173633544e+02  2.9934019750863723e+02  3.0000000000000000e+02  2.9874051867104623e+02  2.9819700348925704e+02  2.9770580548106415e+02  2.9726322426210839e+02  2.9686573386605005e+02  2.9651000611073238e+02  2.9619292877561190e+02  2.9591161874847847e+02  2.9935097066376454e+02  3.0000000000000000e+02  2.9876192341694383e+02  2.9822879468679292e+02  2.9774764248863039e+02  2.9731468203118379e+02  2.9692631597187881e+02  2.9658451084654951e+02  2.9657915859939601e+02  2.9627603159475098e+02  2.9627005382912222e+02  2.9599608738152307e+02  2.9936407155820353e+02  3.0000000000000000e+02  2.9878794741712187e+02  2.9826743232269888e+02  2.9779846392927129e+02  2.9737715246222774e+02  2.9699981338525987e+02  2.9666814541789466e+02  2.9666299236805656e+02  2.9636348268420539e+02  2.9609833576889764e+02  2.9937970240812598e+02  3.0000000000000000e+02  2.9881898827439181e+02  2.9831349658337109e+02  2.9785901519838336e+02  2.9745518021413415e+02  2.9745152591662975e+02  2.9709154696797583e+02  2.9708724001350578e+02  2.9676262372230673e+02  2.9647441425798286e+02  2.9939811245268845e+02  3.0000000000000000e+02  2.9885553493091152e+02  2.9836769836733976e+02  2.9793301598512187e+02  2.9793020540854258e+02  2.9753888257170416e+02  2.9718981898758824e+02  2.9687939164143376e+02  2.9941960754468840e+02  3.0000000000000000e+02  2.9889818554561168e+02  2.9843290334023459e+02  2.9843090320276963e+02  2.9801576841576190e+02  2.9801313472459628e+02  2.9764052069615144e+02  2.9944456373469336e+02  3.0000000000000000e+02  2.9894767248025926e+02  2.9850601558016803e+02  2.9850416400102614e+02  2.9811156872184858e+02  2.9810913084983912e+02  2.9775799329853663e+02  2.9947344703170023e+02  3.0000000000000000e+02  2.9900489800068618e+02  2.9858876662173378e+02  2.9821979814186841e+02  2.9789315566986465e+02  2.9950735585609544e+02  2.9950684317098870e+02  3.0000000000000000e+02  3.0000000000000000e+02  2.9907098674812738e+02  2.9954595327383407e+02  2.9954550448077089e+02  3.0000000000000000e+02  3.0000000000000000e+02  2.9914736551463579e+02  2.9959042786003840e+02  3.0000000000000000e+02  3.0000000000000000e+02  2.9923588935521434e+02  2.9964299380931220e+02  3.0000000000000000e+02  3.0000000000000000e+02  2.9970523663800225e+02  3.0000000000000000e+02  2.9933247083715975e+02  3.0000000000000000e+02  3.0000000000000000e+02  2.9932591667844946e+02  3.0000000000000000e+02  2.9871213785820123e+02  2.9932130103385498e+02  3.0000000000000000e+02  2.9870296410575810e+02  2.9814120135713949e+02  2.9931855744412110e+02  3.0000000000000000e+02  2.9869751089963961e+02  2.9813309637883788e+02  2.9931764668474716e+02  3.0000000000000000e+02  2.9869570073518707e+02  2.9813040601770496e+02  2.9762165009905721e+02  2.9761810612109099e+02  2.9931855578975922e+02  3.0000000000000000e+02  2.9869750798860281e+02  2.9813309257399510e+02  2.9762164572148851e+02  2.9715527149124893e+02  2.9715963113618864e+02  2.9932129773375806e+02  3.0000000000000000e+02  2.9870295830398379e+02  2.9814119378136371e+02  2.9763231791002448e+02  2.9717277404076810e+02  2.9674366472556920e+02  2.9675916024279326e+02  2.9932591175018064e+02  3.0000000000000000e+02  2.9871212920694842e+02  2.9815482367271431e+02  2.9765027072842577e+02  2.9719487921658362e+02  2.9678521710626006e+02  2.9641803362463577e+02  2.9933246430785556e+02  3.0000000000000000e+02  2.9872515198566037e+02  2.9817417523031452e+02  2.9767575449004028e+02  2.9722624902118804e+02  2.9682218385414149e+02  2.9646027251310863e+02  2.9613743519930932e+02  2.9934105081544794e+02  3.0000000000000000e+02  2.9874221496755166e+02  2.9819952498798443e+02  2.9770912738274939e+02  2.9726731540263808e+02  2.9687055750141383e+02  2.9651552078360908e+02  2.9619908920775447e+02  2.9591837670896274e+02  2.9935179818183951e+02  3.0000000000000000e+02  2.9876356842670924e+02  2.9823123989033769e+02  2.9775086376647135e+02  2.9731864907644575e+02  2.9693099305912699e+02  2.9658450543270385e+02  2.9627602641456951e+02  2.9600263887519759e+02  2.9566343059337299e+02  2.9575459384024583e+02  2.9576167533218512e+02  2.9567073570223192e+02  2.9544596117936146e+02  2.9554315946289847e+02  2.9555072066839216e+02  2.9525705110242956e+02  2.9535962167222527e+02  2.9536761151290619e+02  2.9521043319207456e+02  2.9936486844019493e+02  3.0000000000000000e+02  2.9878953150039263e+02  2.9826978689463493e+02  2.9780156568457937e+02  2.9738097212123643e+02  2.9700431644275136e+02  2.9666813991842952e+02  2.9636923226946959e+02  2.9610464220183877e+02  2.9586486601202324e+02  2.9587168213610823e+02  2.9566065099416085e+02  2.9566792835254051e+02  2.9549121775021069e+02  2.9533964230793180e+02  2.9938046376050261e+02  3.0000000000000000e+02  2.9882050170038548e+02  2.9831574605459735e+02  2.9786197836294645e+02  2.9745517469806526e+02  2.9709154133529040e+02  2.9676754030527138e+02  2.9647990543874539e+02  2.9622565024310211e+02  2.9600206927232011e+02  2.9580673467498070e+02  2.9563748944978903e+02  2.9939883335684362e+02  3.0000000000000000e+02  2.9885696791980553e+02  2.9836982819872657e+02  2.9793301082769466e+02  2.9754233688710929e+02  2.9719389076634417e+02  2.9688404547357027e+02  2.9660427863851658e+02  2.9660947592034103e+02  2.9636716252337311e+02  2.9942028309001449e+02  3.0000000000000000e+02  2.9889952833426207e+02  2.9843289888295982e+02  2.9801576328638549e+02  2.9764375701958187e+02  2.9730900988271736e+02  2.9731282439880192e+02  2.9701488256189975e+02  2.9701924197800457e+02  2.9675962668025829e+02  2.9653093263824684e+02  2.9944518906462457e+02  3.0000000000000000e+02  2.9894891541362256e+02  2.9850601118228360e+02  2.9811156366405362e+02  2.9776098838720048e+02  2.9744654288553335e+02  2.9745007276735919e+02  2.9717499418781694e+02  2.9693231894309406e+02  2.9947401740306680e+02  3.0000000000000000e+02  2.9900603164962394e+02  2.9859045129484434e+02  2.9822201677021121e+02  2.9789588684727789e+02  2.9760446138411362e+02  2.9760767994154429e+02  2.9735348028113509e+02  2.9950735402608308e+02  3.0000000000000000e+02  2.9907200205241992e+02  2.9868629450381923e+02  2.9868780321033614e+02  2.9834708438628792e+02  2.9834907112149557e+02  2.9805067256796593e+02  2.9778805617363128e+02  2.9755723437334876e+02  2.9954595153027151e+02  3.0000000000000000e+02  2.9914825394759509e+02  2.9879872232620022e+02  2.9880004240281932e+02  2.9849337236258032e+02  2.9849511054978956e+02  2.9822800979279845e+02  2.9959080717337105e+02  3.0000000000000000e+02  2.9923664310331310e+02  2.9892855463326953e+02  2.9892967447891664e+02  2.9866308025350963e+02  2.9843110852048358e+02  2.9964330190714554e+02  3.0000000000000000e+02  2.9933904969181344e+02  2.9933966183935485e+02  2.9907994385668979e+02  2.9885665896405033e+02  2.9970547057921095e+02  3.0000000000000000e+02  2.9946079767945690e+02  2.9925514950795724e+02  2.9978058532017991e+02  2.9999999999999994e+02  2.9999999999999994e+02  2.9960517395968350e+02  2.9987457866409056e+02  3.0000000000000000e+02  3.0000000000000000e+02  3.0000000000000000e+02  3.0000000000000000e+02  3.0000000000000000e+02  3.0000000000000000e+02  3.0000000000000000e+02  3.0000000000000000e+02  2.9934363372074472e+02  2.9933510865087379e+02  3.0000000000000000e+02  2.9932860325372116e+02  3.0000000000000000e+02  2.9873040657675148e+02  2.9871747800867558e+02  2.9932402229715444e+02  3.0000000000000000e+02  2.9870837326131442e+02  2.9816277219520305e+02  2.9814924128823634e+02  2.9932129945209880e+02  3.0000000000000000e+02  2.9870296132642682e+02  2.9814119773139851e+02  2.9764291792981356e+02  2.9763232245558328e+02  2.9932039557680974e+02  3.0000000000000000e+02  2.9870116486315050e+02  2.9813852776803668e+02  2.9762880540021217e+02  2.9717277889845712e+02  2.9716844780561848e+02  2.9932129773375812e+02  3.0000000000000000e+02  2.9870295830398373e+02  2.9814119378136382e+02  2.9763231791002454e+02  2.9717277404076793e+02  2.9675405893505729e+02  2.9675916024279303e+02  2.9932401886940755e+02  3.0000000000000000e+02  2.9870836723730667e+02  2.9814923342288085e+02  2.9764290888786394e+02  2.9718581676852142e+02  2.9677453742378276e+02  2.9640583039582634e+02  2.9932859813477450e+02  3.0000000000000000e+02  2.9871746902557226e+02  2.9816276048500544e+02  2.9766072606262799e+02  2.9720775462154415e+02  2.9680039663561070e+02  2.9643538657342793e+02  2.9933510186889959e+02  3.0000000000000000e+02  2.9873039470007325e+02  2.9818196757161797e+02  2.9768601925585671e+02  2.9723888936231111e+02  2.9683708572973643e+02  2.9647730739396508e+02  2.9615646284396018e+02  2.9934362531497214e+02  3.0000000000000000e+02  2.9874733226086926e+02  2.9820713073473070e+02  2.9771914603006536e+02  2.9727965218358759e+02  2.9688510085151279e+02  2.9653214499964491e+02  2.9621765717613641e+02  2.9593874255048138e+02  2.9935429519734197e+02  3.0000000000000000e+02  2.9876853161721198e+02  2.9823861638280300e+02  2.9776058005084957e+02  2.9733061296486903e+02  2.9694509605306945e+02  2.9660062532524051e+02  2.9629402995812740e+02  2.9602238436475676e+02  2.9578301498394262e+02  2.9569274721046372e+02  2.9557350270847843e+02  2.9936727336735294e+02  3.0000000000000000e+02  2.9879431154728053e+02  2.9827689094675145e+02  2.9781092268269305e+02  2.9739249297177412e+02  2.9701789632368730e+02  2.9668366081157944e+02  2.9638656555357488e+02  2.9612365116026211e+02  2.9589222426259272e+02  2.9568985737245083e+02  2.9551438530810248e+02  2.9539168192490041e+02  2.9536389930184464e+02  2.9938276184284388e+02  3.0000000000000000e+02  2.9882506926304688e+02  2.9832253404314935e+02  2.9787091859233612e+02  2.9746618170345056e+02  2.9710451460338277e+02  2.9678236672181833e+02  2.9649646179150113e+02  2.9624380563885518e+02  2.9602168735561111e+02  2.9582767556929883e+02  2.9565961137455412e+02  2.9551559924667316e+02  2.9539399699969414e+02  2.9940100974738840e+02  3.0000000000000000e+02  2.9886129348051378e+02  2.9837625624657812e+02  2.9794147648997199e+02  2.9755275888064739e+02  2.9720617353954339e+02  2.9689808155266252e+02  2.9662514830533530e+02  2.9638434699799927e+02  2.9615438764408731e+02  2.9617295489234766e+02  2.9598854462942887e+02  2.9582897257231042e+02  2.9569236569750058e+02  2.9942232294931307e+02  3.0000000000000000e+02  2.9890358239304493e+02  2.9843892314919242e+02  2.9802369665065811e+02  2.9765352294936469e+02  2.9732433297476246e+02  2.9703239212104654e+02  2.9677430842206724e+02  2.9654702930650950e+02  2.9634783071414131e+02  2.9617430169615471e+02  2.9944707769842631e+02  3.0000000000000000e+02  2.9895266876169529e+02  2.9851158826865816e+02  2.9811890760278840e+02  2.9777002797680524e+02  2.9746072440345000e+02  2.9718716395136090e+02  2.9694590472581217e+02  2.9673388213254901e+02  2.9654838786394987e+02  2.9947574044091078e+02  3.0000000000000000e+02  2.9900945572393857e+02  2.9859553877234328e+02  2.9822871545239900e+02  2.9790413144874071e+02  2.9761739385944287e+02  2.9736457752369085e+02  2.9714220819219366e+02  2.9694723289350270e+02  2.9950889763922777e+02  3.0000000000000000e+02  2.9907506936824979e+02  2.9869236026134251e+02  2.9835507085739448e+02  2.9805805620003929e+02  2.9779675478017003e+02  2.9756717064634068e+02  2.9736583033139624e+02  2.9954730268348618e+02  3.0000000000000000e+02  2.9915093859853113e+02  2.9880403056363849e+02  2.9850036076768941e+02  2.9823447034093232e+02  2.9799404178158534e+02  2.9800165207845623e+02  2.9778919431846452e+02  2.9779788647022190e+02  2.9761975694917663e+02  2.9959195390018641e+02  3.0000000000000000e+02  2.9923892130871320e+02  2.9893305845421116e+02  2.9866753457247688e+02  2.9843658905546505e+02  2.9822898229615487e+02  2.9823543742878741e+02  2.9806012512367664e+02  2.9790738076058472e+02  2.9964423359208411e+02  3.0000000000000000e+02  2.9934151250842922e+02  2.9908269236286094e+02  2.9886027630894409e+02  2.9866385011944800e+02  2.9866830027105061e+02  2.9850205271895919e+02  2.9835779413832108e+02  2.9970617822272521e+02  3.0000000000000000e+02  2.9946220294914895e+02  2.9925723608816878e+02  2.9908048715087705e+02  2.9908323283956082e+02  2.9893430971347630e+02  2.9880611230515314e+02  2.9978106174977535e+02  2.9999999999999994e+02  2.9960611965024810e+02  2.9946251603409019e+02  2.9934229341378375e+02  2.9924028485618823e+02  2.9987481862804549e+02  3.0000000000000000e+02  2.9978070283195751e+02  2.9978117874913465e+02  2.9970651410532548e+02  3.0000000000000000e+02  3.0000000000000000e+02  2.9999999999999994e+02  3.0000000000000000e+02  2.9934796814690748e+02  3.0000000000000000e+02  3.0000000000000000e+02  2.9933954847388424e+02  3.0000000000000000e+02  2.9873923096993479e+02  2.9933312462847118e+02  3.0000000000000000e+02  2.9872646461466530e+02  2.9817612783132728e+02  2.9932860167794394e+02  3.0000000000000000e+02  2.9871747525032731e+02  2.9816276861193654e+02  2.9766073540750898e+02  2.9932591352634500e+02  3.0000000000000000e+02  2.9871213232997621e+02  2.9815482775382651e+02  2.9765027542579554e+02  2.9719488423925384e+02  2.9932502117943551e+02  3.0000000000000000e