<?xml version="1.0"?>
<VTKFile type="UnstructuredGrid"  version="0.1"  >
<UnstructuredGrid>
<Piece  NumberOfPoints="7630" NumberOfCells="38698">
<Points>
<DataArray  type="Float64"  NumberOfComponents="3"  format="ascii">0.15 0 0.225  0.175 0 0.225  0.175 0 0.25  0.175 0.025 0.25  0.15 0 0.25  0.2 0 0.225  0.2 0 0.25  0.2 0.025 0.25  0.225 0 0.25  0.225 0.025 0.25  0.175 0.025 0.275  0.175 0 0.275  0.15 0 0.275  0.2 0.025 0.275  0.2 0 0.275  0.225 0.025 0.275  0.225 0 0.275  0.25 0 0.25  0.25 0 0.275  0.25 0.025 0.275  0.275 0 0.275  0.275 0.025 0.275  0.2 0.05 0.275  0.225 0.05 0.275  0.25 0.05 0.275  0.175 0.025 0.3  0.175 0 0.3  0.15 0 0.3  0.2 0.025 0.3  0.2 0 0.3  0.225 0.025 0.3  0.225 0 0.3  0.25 0.025 0.3  0.25 0 0.3  0.275 0.025 0.3  0.275 0 0.3  0.3 0 0.275  0.3 0 0.3  0.3 0.025 0.3  0.325 0 0.275  0.325 0 0.3  0.325 0.025 0.3  0.35 0 0.275  0.35 0 0.3  0.35 0.025 0.3  0.375 0 0.275  0.375 0 0.3  0.375 0.025 0.3  0.4 0 0.275  0.4 0 0.3  0.4 0.025 0.3  0.425 0 0.275  0.425 0 0.3  0.425 0.025 0.3  0.45 0 0.275  0.45 0 0.3  0.45 0.025 0.3  0.475 0 0.3  0.475 0.025 0.3  0.2 0.05 0.3  0.225 0.05 0.3  0.25 0.05 0.3  0.275 0.05 0.275  0.275 0.05 0.3  0.3 0.05 0.3  0.225 0.075 0.3  0.2 0.075 0.3  0.2 0.075 0.275  0.25 0.075 0.3  0.275 0.075 0.3  0.3 0.075 0.3  0.225 0.1 0.3  0.175 0.025 0.325  0.175 0 0.325  0.15 0 0.325  0.2 0.025 0.325  0.2 0 0.325  0.225 0.025 0.325  0.225 0 0.325  0.25 0.025 0.325  0.25 0 0.325  0.275 0.025 0.325  0.275 0 0.325  0.3 0.025 0.325  0.3 0 0.325  0.325 0.025 0.325  0.325 0 0.325  0.35 0.025 0.325  0.35 0 0.325  0.375 0.025 0.325  0.375 0 0.325  0.4 0.025 0.325  0.4 0 0.325  0.425 0.025 0.325  0.425 0 0.325  0.45 0.025 0.325  0.45 0 0.325  0.475 0.025 0.325  0.475 0 0.325  0.5 0 0.3  0.5 0 0.325  0.5 0.025 0.325  0.525 0 0.325  0.525 0.025 0.325  0.2 0.05 0.325  0.225 0.05 0.325  0.25 0.05 0.325  0.275 0.05 0.325  0.3 0.05 0.325  0.325 0.05 0.3  0.325 0.05 0.325  0.35 0.05 0.3  0.35 0.05 0.325  0.375 0.05 0.3  0.375 0.05 0.325  0.4 0.05 0.325  0.425 0.05 0.325  0.45 0.05 0.325  0.475 0.05 0.325  0.5 0.05 0.325  0.225 0.075 0.325  0.2 0.075 0.325  0.25 0.075 0.325  0.275 0.075 0.325  0.3 0.075 0.325  0.325 0.075 0.3  0.325 0.075 0.325  0.35 0.075 0.325  0.375 0.075 0.325  0.4 0.075 0.325  0.225 0.1 0.325  0.25 0.1 0.3  0.25 0.1 0.325  0.275 0.1 0.325  0.3 0.1 0.325  0.325 0.1 0.325  0.35 0.1 0.325  0.25 0.125 0.3  0.25 0.125 0.325  0.275 0.125 0.325  0.275 0.15 0.325  0.175 0.025 0.35  0.175 0 0.35  0.15 0 0.35  0.2 0.025 0.35  0.2 0 0.35  0.225 0.025 0.35  0.225 0 0.35  0.25 0.025 0.35  0.25 0 0.35  0.275 0.025 0.35  0.275 0 0.35  0.3 0.025 0.35  0.3 0 0.35  0.325 0.025 0.35  0.325 0 0.35  0.35 0.025 0.35  0.35 0 0.35  0.375 0.025 0.35  0.375 0 0.35  0.4 0.025 0.35  0.4 0 0.35  0.425 0.025 0.35  0.425 0 0.35  0.45 0.025 0.35  0.45 0 0.35  0.475 0.025 0.35  0.475 0 0.35  0.5 0.025 0.35  0.5 0 0.35  0.525 0.025 0.35  0.525 0 0.35  0.55 0 0.325  0.55 0.025 0.325  0.55 0.025 0.35  0.55 0 0.35  0.575 0 0.325  0.575 0 0.35  0.575 0.025 0.35  0.6 0 0.35  0.6 0.025 0.35  0.2 0.05 0.35  0.225 0.05 0.35  0.25 0.05 0.35  0.275 0.05 0.35  0.3 0.05 0.35  0.325 0.05 0.35  0.35 0.05 0.35  0.375 0.05 0.35  0.4 0.05 0.35  0.425 0.05 0.35  0.45 0.05 0.35  0.475 0.05 0.35  0.5 0.05 0.35  0.525 0.05 0.35  0.55 0.05 0.35  0.575 0.05 0.35  0.225 0.075 0.35  0.25 0.075 0.35  0.275 0.075 0.35  0.3 0.075 0.35  0.325 0.075 0.35  0.35 0.075 0.35  0.375 0.075 0.35  0.4 0.075 0.35  0.425 0.075 0.325  0.425 0.075 0.35  0.45 0.075 0.325  0.45 0.075 0.35  0.475 0.075 0.35  0.5 0.075 0.35  0.525 0.075 0.35  0.225 0.1 0.35  0.25 0.1 0.35  0.275 0.1 0.35  0.3 0.1 0.35  0.325 0.1 0.35  0.35 0.1 0.35  0.375 0.1 0.35  0.4 0.1 0.325  0.4 0.1 0.35  0.425 0.1 0.325  0.425 0.1 0.35  0.45 0.1 0.35  0.475 0.1 0.35  0.25 0.125 0.35  0.275 0.125 0.35  0.3 0.125 0.325  0.3 0.125 0.35  0.325 0.125 0.325  0.325 0.125 0.35  0.35 0.125 0.325  0.35 0.125 0.35  0.375 0.125 0.35  0.425 0.125 0.35  0.4 0.125 0.35  0.45 0.125 0.35  0.275 0.15 0.35  0.3 0.15 0.35  0.325 0.15 0.35  0.35 0.15 0.35  0.375 0.15 0.35  0.3 0.175 0.35  0.175 0.025 0.375  0.175 0 0.375  0.15 0 0.375  0.2 0.025 0.375  0.2 0 0.375  0.225 0.025 0.375  0.225 0 0.375  0.25 0.025 0.375  0.25 0 0.375  0.275 0.025 0.375  0.275 0 0.375  0.3 0.025 0.375  0.3 0 0.375  0.325 0.025 0.375  0.325 0 0.375  0.35 0.025 0.375  0.35 0 0.375  0.375 0.025 0.375  0.375 0 0.375  0.4 0.025 0.375  0.4 0 0.375  0.425 0.025 0.375  0.425 0 0.375  0.45 0.025 0.375  0.45 0 0.375  0.475 0.025 0.375  0.475 0 0.375  0.5 0.025 0.375  0.5 0 0.375  0.525 0.025 0.375  0.525 0 0.375  0.55 0.025 0.375  0.55 0 0.375  0.575 0.025 0.375  0.575 0 0.375  0.6 0.025 0.375  0.6 0 0.375  0.625 0 0.35  0.625 0 0.375  0.625 0.025 0.375  0.65 0.025 0.375  0.2 0.05 0.375  0.225 0.05 0.375  0.25 0.05 0.375  0.275 0.05 0.375  0.3 0.05 0.375  0.325 0.05 0.375  0.35 0.05 0.375  0.375 0.05 0.375  0.4 0.05 0.375  0.425 0.05 0.375  0.45 0.05 0.375  0.475 0.05 0.375  0.5 0.05 0.375  0.525 0.05 0.375  0.55 0.05 0.375  0.575 0.05 0.375  0.6 0.05 0.35  0.6 0.05 0.375  0.625 0.05 0.375  0.225 0.075 0.375  0.25 0.075 0.375  0.275 0.075 0.375  0.3 0.075 0.375  0.325 0.075 0.375  0.35 0.075 0.375  0.375 0.075 0.375  0.4 0.075 0.375  0.425 0.075 0.375  0.45 0.075 0.375  0.475 0.075 0.375  0.5 0.075 0.375  0.525 0.075 0.375  0.55 0.075 0.35  0.55 0.075 0.375  0.575 0.075 0.35  0.575 0.075 0.375  0.6 0.075 0.375  0.625 0.075 0.375  0.25 0.1 0.375  0.225 0.1 0.375  0.275 0.1 0.375  0.3 0.1 0.375  0.325 0.1 0.375  0.35 0.1 0.375  0.375 0.1 0.375  0.4 0.1 0.375  0.425 0.1 0.375  0.45 0.1 0.375  0.475 0.1 0.375  0.5 0.1 0.35  0.5 0.1 0.375  0.525 0.1 0.375  0.55 0.1 0.375  0.575 0.1 0.375  0.6 0.1 0.375  0.25 0.125 0.375  0.275 0.125 0.375  0.3 0.125 0.375  0.325 0.125 0.375  0.35 0.125 0.375  0.375 0.125 0.375  0.4 0.125 0.375  0.425 0.125 0.375  0.45 0.125 0.375  0.475 0.125 0.375  0.5 0.125 0.375  0.525 0.125 0.375  0.275 0.15 0.375  0.3 0.15 0.375  0.325 0.15 0.375  0.35 0.15 0.375  0.375 0.15 0.375  0.4 0.15 0.35  0.4 0.15 0.375  0.425 0.15 0.35  0.425 0.15 0.375  0.45 0.15 0.35  0.45 0.15 0.375  0.475 0.15 0.375  0.3 0.175 0.375  0.325 0.175 0.35  0.325 0.175 0.375  0.35 0.175 0.35  0.35 0.175 0.375  0.375 0.175 0.35  0.375 0.175 0.375  0.4 0.175 0.375  0.425 0.175 0.375  0.45 0.175 0.375  0.475 0.175 0.375  0.325 0.2 0.35  0.325 0.2 0.375  0.3 0.2 0.35  0.35 0.2 0.35  0.35 0.2 0.375  0.375 0.2 0.375  0.4 0.2 0.375  0.325 0.225 0.35  0.325 0.225 0.375  0.3 0.225 0.35  0.35 0.225 0.375  0.375 0.225 0.375  0.325 0.25 0.375  0.35 0.25 0.375  0.175 0.025 0.4  0.175 0 0.4  0.2 0.025 0.4  0.2 0 0.4  0.225 0.025 0.4  0.225 0 0.4  0.25 0.025 0.4  0.25 0 0.4  0.275 0.025 0.4  0.275 0 0.4  0.3 0.025 0.4  0.3 0 0.4  0.325 0.025 0.4  0.325 0 0.4  0.35 0.025 0.4  0.35 0 0.4  0.375 0.025 0.4  0.375 0 0.4  0.4 0.025 0.4  0.4 0 0.4  0.425 0.025 0.4  0.425 0 0.4  0.45 0.025 0.4  0.45 0 0.4  0.475 0.025 0.4  0.475 0 0.4  0.5 0.025 0.4  0.5 0 0.4  0.525 0.025 0.4  0.525 0 0.4  0.55 0.025 0.4  0.55 0 0.4  0.575 0.025 0.4  0.575 0 0.4  0.6 0.025 0.4  0.6 0 0.4  0.625 0.025 0.4  0.625 0 0.4  0.65 0.025 0.4  0.2 0.05 0.4  0.225 0.05 0.4  0.25 0.05 0.4  0.275 0.05 0.4  0.3 0.05 0.4  0.325 0.05 0.4  0.35 0.05 0.4  0.375 0.05 0.4  0.4 0.05 0.4  0.425 0.05 0.4  0.45 0.05 0.4  0.475 0.05 0.4  0.5 0.05 0.4  0.525 0.05 0.4  0.55 0.05 0.4  0.575 0.05 0.4  0.6 0.05 0.4  0.625 0.05 0.4  0.65 0.05 0.4  0.675 0.05 0.4  0.225 0.075 0.4  0.25 0.075 0.4  0.275 0.075 0.4  0.3 0.075 0.4  0.325 0.075 0.4  0.35 0.075 0.4  0.375 0.075 0.4  0.4 0.075 0.4  0.425 0.075 0.4  0.45 0.075 0.4  0.475 0.075 0.4  0.5 0.075 0.4  0.525 0.075 0.4  0.55 0.075 0.4  0.575 0.075 0.4  0.6 0.075 0.4  0.625 0.075 0.4  0.65 0.075 0.4  0.25 0.1 0.4  0.225 0.1 0.4  0.275 0.1 0.4  0.3 0.1 0.4  0.325 0.1 0.4  0.35 0.1 0.4  0.375 0.1 0.4  0.4 0.1 0.4  0.425 0.1 0.4  0.45 0.1 0.4  0.475 0.1 0.4  0.5 0.1 0.4  0.525 0.1 0.4  0.55 0.1 0.4  0.575 0.1 0.4  0.6 0.1 0.4  0.625 0.1 0.4  0.65 0.1 0.4  0.25 0.125 0.4  0.275 0.125 0.4  0.3 0.125 0.4  0.325 0.125 0.4  0.35 0.125 0.4  0.375 0.125 0.4  0.4 0.125 0.4  0.425 0.125 0.4  0.45 0.125 0.4  0.475 0.125 0.4  0.5 0.125 0.4  0.525 0.125 0.4  0.55 0.125 0.375  0.55 0.125 0.4  0.575 0.125 0.375  0.575 0.125 0.4  0.6 0.125 0.375  0.6 0.125 0.4  0.625 0.125 0.4  0.275 0.15 0.4  0.3 0.15 0.4  0.325 0.15 0.4  0.35 0.15 0.4  0.375 0.15 0.4  0.4 0.15 0.4  0.425 0.15 0.4  0.45 0.15 0.4  0.475 0.15 0.4  0.5 0.15 0.375  0.5 0.15 0.4  0.525 0.15 0.4  0.55 0.15 0.4  0.575 0.15 0.4  0.6 0.15 0.4  0.625 0.15 0.4  0.3 0.175 0.4  0.325 0.175 0.4  0.35 0.175 0.4  0.375 0.175 0.4  0.4 0.175 0.4  0.425 0.175 0.4  0.45 0.175 0.4  0.475 0.175 0.4  0.5 0.175 0.375  0.5 0.175 0.4  0.525 0.175 0.4  0.325 0.2 0.4  0.3 0.2 0.4  0.35 0.2 0.4  0.375 0.2 0.4  0.4 0.2 0.4  0.425 0.2 0.375  0.425 0.2 0.4  0.45 0.2 0.375  0.45 0.2 0.4  0.475 0.2 0.375  0.475 0.2 0.4  0.5 0.2 0.4  0.525 0.2 0.4  0.35 0.225 0.4  0.325 0.225 0.4  0.375 0.225 0.4  0.4 0.225 0.4  0.425 0.225 0.4  0.45 0.225 0.4  0.475 0.225 0.4  0.5 0.225 0.4  0.35 0.25 0.4  0.325 0.25 0.4  0.375 0.25 0.375  0.375 0.25 0.4  0.4 0.25 0.4  0.35 0.275 0.375  0.35 0.275 0.4  0.325 0.275 0.375  0.375 0.275 0.4  0.4 0.275 0.4  0.35 0.3 0.4  0.375 0.3 0.4  0.2 0.025 0.425  0.2 0 0.425  0.225 0.025 0.425  0.225 0 0.425  0.25 0.025 0.425  0.25 0 0.425  0.275 0.025 0.425  0.275 0 0.425  0.3 0.025 0.425  0.3 0 0.425  0.325 0.025 0.425  0.325 0 0.425  0.35 0.025 0.425  0.35 0 0.425  0.375 0.025 0.425  0.375 0 0.425  0.4 0.025 0.425  0.4 0 0.425  0.425 0.025 0.425  0.425 0 0.425  0.45 0.025 0.425  0.45 0 0.425  0.475 0.025 0.425  0.475 0 0.425  0.5 0.025 0.425  0.5 0 0.425  0.525 0.025 0.425  0.525 0 0.425  0.55 0.025 0.425  0.55 0 0.425  0.575 0.025 0.425  0.575 0 0.425  0.6 0.025 0.425  0.6 0 0.425  0.625 0.025 0.425  0.625 0 0.425  0.65 0 0.425  0.65 0.025 0.425  0.2 0.05 0.425  0.225 0.05 0.425  0.25 0.05 0.425  0.275 0.05 0.425  0.3 0.05 0.425  0.325 0.05 0.425  0.35 0.05 0.425  0.375 0.05 0.425  0.4 0.05 0.425  0.425 0.05 0.425
[...]
<PointData  Scalars="f_11"> 
<DataArray  type="Float64"  Name="f_11"  format="ascii">3.0000000000000000e+02  3.0000000000000000e+02  3.0000000000000000e+02  2.9956820462417221e+02  3.0000000000000000e+02  3.0000000000000000e+02  3.0000000000000000e+02  2.9954180381070353e+02  3.0000000000000000e+02  2.9951932366563250e+02  2.9955538038559337e+02  3.0000000000000000e+02  3.0000000000000000e+02  2.9952762026146598e+02  3.0000000000000000e+02  2.9950391559765382e+02  3.0000000000000000e+02  3.0000000000000000e+02  3.0000000000000000e+02  2.9948366710762008e+02  3.0000000000000000e+02  2.9946640345365432e+02  2.9911162827573543e+02  2.9906460659581705e+02  2.9902439604051875e+02  2.9954456293324614e+02  3.0000000000000000e+02  3.0000000000000000e+02  2.9951563132591900e+02  3.0000000000000000e+02  2.9949086565189810e+02  3.0000000000000000e+02  2.9946966541653154e+02  3.0000000000000000e+02  2.9945155666574857e+02  3.0000000000000000e+02  3.0000000000000000e+02  3.0000000000000000e+02  2.9943616061744029e+02  3.0000000000000000e+02  3.0000000000000000e+02  2.9942317244298516e+02  3.0000000000000000e+02  3.0000000000000000e+02  2.9941234641326440e+02  3.0000000000000000e+02  3.0000000000000000e+02  2.9940348523969016e+02  3.0000000000000000e+02  3.0000000000000000e+02  2.9939643230522296e+02  3.0000000000000000e+02  3.0000000000000000e+02  2.9939106596889314e+02  3.0000000000000000e+02  3.0000000000000000e+02  2.9938729541789098e+02  3.0000000000000000e+02  2.9938505772294667e+02  2.9908781491011081e+02  2.9903868222964542e+02  2.9899657765157701e+02  2.9899008375113476e+02  2.9896058324623095e+02  2.9892996119559808e+02  2.9863805808098704e+02  2.9871075058352415e+02  2.9874607018497392e+02  2.9857566252768237e+02  2.9852225489931914e+02  2.9847677408080636e+02  2.9828385447785331e+02  2.9953549558809078e+02  3.0000000000000000e+02  3.0000000000000000e+02  2.9950556515250628e+02  3.0000000000000000e+02  2.9947989076892014e+02  3.0000000000000000e+02  2.9945787196364705e+02  3.0000000000000000e+02  2.9943903355629470e+02  3.0000000000000000e+02  2.9942299469948921e+02  3.0000000000000000e+02  2.9940944800903600e+02  3.0000000000000000e+02  2.9939814499479326e+02  3.0000000000000000e+02  2.9938888562649379e+02  3.0000000000000000e+02  2.9938151073701835e+02  3.0000000000000000e+02  2.9937589645535564e+02  3.0000000000000000e+02  2.9937195015168032e+02  3.0000000000000000e+02  2.9936960755748879e+02  3.0000000000000000e+02  3.0000000000000000e+02  3.0000000000000000e+02  2.9936883084187582e+02  3.0000000000000000e+02  2.9936960750719987e+02  2.9906781038942773e+02  2.9901686916447676e+02  2.9897313514800288e+02  2.9893568806096880e+02  2.9890378605417396e+02  2.9890411525855745e+02  2.9887682786680767e+02  2.9888256330551656e+02  2.9885432592847434e+02  2.9886491734823875e+02  2.9883588683748576e+02  2.9882119700617574e+02  2.9881001206292632e+02  2.9880214908982907e+02  2.9879748108727097e+02  2.9879593326576145e+02  2.9860567373144863e+02  2.9868105583848319e+02  2.9854085420270707e+02  2.9848528495124782e+02  2.9843789906084578e+02  2.9843835717641088e+02  2.9839782633758017e+02  2.9836435777789552e+02  2.9833691925341361e+02  2.9831505186196978e+02  2.9824128201408729e+02  2.9820204896246389e+02  2.9815628225049522e+02  2.9808330040732591e+02  2.9802099039596669e+02  2.9796824580071961e+02  2.9792415980254810e+02  2.9787115345514877e+02  2.9781494082556389e+02  2.9772543635408266e+02  2.9740767290461122e+02  2.9952797655725902e+02  3.0000000000000000e+02  3.0000000000000000e+02  2.9949720660556613e+02  3.0000000000000000e+02  2.9947076561650812e+02  3.0000000000000000e+02  2.9944805381651190e+02  3.0000000000000000e+02  2.9942859567061788e+02  3.0000000000000000e+02  2.9941200922273561e+02  3.0000000000000000e+02  2.9939798549469253e+02  3.0000000000000000e+02  2.9938627414639649e+02  3.0000000000000000e+02  2.9937667322995145e+02  3.0000000000000000e+02  2.9936902174270233e+02  3.0000000000000000e+02  2.9936319417582797e+02  3.0000000000000000e+02  2.9935909654586646e+02  3.0000000000000000e+02  2.9935666357677252e+02  3.0000000000000000e+02  2.9935585681750825e+02  3.0000000000000000e+02  2.9935666356131469e+02  3.0000000000000000e+02  3.0000000000000000e+02  2.9937195002907703e+02  2.9935909649336969e+02  3.0000000000000000e+02  3.0000000000000000e+02  3.0000000000000000e+02  2.9936319404349297e+02  3.0000000000000000e+02  2.9936902146727090e+02  2.9905119280527788e+02  2.9899872545512295e+02  2.9895361164913902e+02  2.9891493046496447e+02  2.9888193790097642e+02  2.9885402956971842e+02  2.9883071425651798e+02  2.9881159477317334e+02  2.9879635390219835e+02  2.9878474402990508e+02  2.9877657955697293e+02  2.9877173148700433e+02  2.9877012380112501e+02  2.9877173137272445e+02  2.9877657928700773e+02  2.9878474352216983e+02  2.9857872025543577e+02  2.9851184742990677e+02  2.9845444126690592e+02  2.9840543178230280e+02  2.9836394424830371e+02  2.9832926433962615e+02  2.9830081237700273e+02  2.9827812412403210e+02  2.9829839725143074e+02  2.9826083645625641e+02  2.9828668677603190e+02  2.9824867677633767e+02  2.9824145541730007e+02  2.9823906052957221e+02  2.9824145513146726e+02  2.9820582002759664e+02  2.9811811329839031e+02  2.9804270900087403e+02  2.9797825723912194e+02  2.9792364583233655e+02  2.9787796112877544e+02  2.9784045830088428e+02  2.9785915892695516e+02  2.9781053875859800e+02  2.9783718909645893e+02  2.9778773303650206e+02  2.9777168800809994e+02  2.9776215763079233e+02  2.9776801614863064e+02  2.9767552608643109e+02  2.9764891249725753e+02  2.9759636167333798e+02  2.9758406305837525e+02  2.9752920992631732e+02  2.9752981037089739e+02  2.9747298503673704e+02  2.9742679722720771e+02  2.9736181410826049e+02  2.9738992852967624e+02  2.9734202811541650e+02  2.9734894687413265e+02  2.9725592089815143e+02  2.9717691602541976e+02  2.9711070237609761e+02  2.9705626656594217e+02  2.9695337280044885e+02  2.9952184732657565e+02  3.0000000000000000e+02  3.0000000000000000e+02  2.9949038574609574e+02  3.0000000000000000e+02  2.9946331129313023e+02  3.0000000000000000e+02  2.9944002520125042e+02  3.0000000000000000e+02  2.9942005208337116e+02  3.0000000000000000e+02  2.9940300948902473e+02  3.0000000000000000e+02  2.9938858750566482e+02  3.0000000000000000e+02  2.9937653459767142e+02  3.0000000000000000e+02  2.9936664751225720e+02  3.0000000000000000e+02  2.9935876395695061e+02  3.0000000000000000e+02  2.9935275724693588e+02  3.0000000000000000e+02  2.9934853241222834e+02  3.0000000000000000e+02  2.9934602343507169e+02  3.0000000000000000e+02  2.9934519140507302e+02  3.0000000000000000e+02  2.9934602346017942e+02  3.0000000000000000e+02  2.9934853244142124e+02  3.0000000000000000e+02  2.9935275723850032e+02  3.0000000000000000e+02  2.9935876384917839e+02  3.0000000000000000e+02  3.0000000000000000e+02  3.0000000000000000e+02  2.9936664722456379e+02  2.9937653403223101e+02  2.9903762810205683e+02  2.9898389940423255e+02  2.9893764192974663e+02  2.9889793509384583e+02  2.9886403394841477e+02  2.9883533227793203e+02  2.9881133651427024e+02  2.9879164689293071e+02  2.9877594364552476e+02  2.9876397683000590e+02  2.9875555889238575e+02  2.9875055936592918e+02  2.9874890132085920e+02  2.9875055932253036e+02  2.9875555876516489e+02  2.9876397653878382e+02  2.9879635303544552e+02  2.9877594307176525e+02  2.9879164588199149e+02  2.9855668464950651e+02  2.9848810941688868e+02  2.9842917622139868e+02  2.9837881376323162e+02  2.9833614467658606e+02  2.9830045120481424e+02  2.9827114989397302e+02  2.9824777275951732e+02  2.9822995324954735e+02  2.9821741588581949e+02  2.9820996883250046e+02  2.9820749889566991e+02  2.9820996863888166e+02  2.9824867614536561e+02  2.9821741544060927e+02  2.9826083536265043e+02  2.9822995243784032e+02  2.9824777141164986e+02  2.9827114778903132e+02  2.9808685784402684e+02  2.9817680976739939e+02  2.9800943910205791e+02  2.9794320207418741e+02  2.9788703124932022e+02  2.9784000858083573e+02  2.9780138437384841e+02  2.9777055518620796e+02  2.9774704710439181e+02  2.9773050325677627e+02  2.9772067477811754e+02  2.9775899667909437e+02  2.9771741469211486e+02  2.9772067436882355e+02  2.9773050236487194e+02  2.9774704558471910e+02  2.9777055282485173e+02  2.9772956238411820e+02  2.9763458864661749e+02  2.9755322245508995e+02  2.9748414694436235e+02  2.9742627108624947e+02  2.9737869927320190e+02  2.9734070769671814e+02  2.9731172614993181e+02  2.9729132425367544e+02  2.9727920138691087e+02  2.9727517981930743e+02  2.9727920071571441e+02  2.9730073986028179e+02  2.9720511460555741e+02  2.9712383794763338e+02  2.9705567411504626e+02  2.9699960307511941e+02  2.9701278734969009e+02  2.9695479688370386e+02  2.9697961647598441e+02  2.9692060110631127e+02  2.9695626397270627e+02  2.9689652054118585e+02  2.9688220866254801e+02  2.9689536737853865e+02  2.9686328078941085e+02  2.9680267428465413e+02  2.9678769792613906e+02  2.9672485787397278e+02  2.9672550825262613e+02  2.9666079487183134e+02  2.9660956950367057e+02  2.9657045540906563e+02  2.9654290151890467e+02  2.9652652148523981e+02  2.9658508037490253e+02  2.9651747243226532e+02  2.9668543816622429e+02  2.9650079795324984e+02  2.9643069066960629e+02  2.9635918788226041e+02  2.9630197600216246e+02  2.9633936307740152e+02  2.9626530897785580e+02  2.9644913054945840e+02  2.9617028427797334e+02  2.9609192585212475e+02  2.9604352681377202e+02  2.9594100249002668e+02  2.9951698436884561e+02  3.0000000000000000e+02  2.9948496953294142e+02  3.0000000000000000e+02  2.9945738714088640e+02  3.0000000000000000e+02  2.9943363949154281e+02  3.0000000000000000e+02  2.9941325158878146e+02  3.0000000000000000e+02  2.9939584085221696e+02  3.0000000000000000e+02  2.9938109686664023e+02  3.0000000000000000e+02  2.9936876735605983e+02  3.0000000000000000e+02  2.9935864820737515e+02  3.0000000000000000e+02  2.9935057624678922e+02  3.0000000000000000e+02  2.9934442396738291e+02  3.0000000000000000e+02  2.9934009569893857e+02  3.0000000000000000e+02  2.9933752489190664e+02  3.0000000000000000e+02  2.9933667230453375e+02  3.0000000000000000e+02  2.9933752496249429e+02  3.0000000000000000e+02  2.9934009581974448e+02  3.0000000000000000e+02  2.9934442409795366e+02  3.0000000000000000e+02  2.9935057632718895e+02  3.0000000000000000e+02  2.9935864815915289e+02  3.0000000000000000e+02  2.9936876708366935e+02  2.9902685428795445e+02  2.9897211400761807e+02  2.9892493722199032e+02  2.9888440415475344e+02  2.9884976962517476e+02  2.9882042643905305e+02  2.9879587957253432e+02  2.9877572756308155e+02  2.9875964889926803e+02  2.9874739201113067e+02  2.9873876795697896e+02  2.9873364521562712e+02  2.9873194620003949e+02  2.9873364525279800e+02  2.9873876799205942e+02  2.9874739196617952e+02  2.9875964865888500e+02  2.9877572697637623e+02  2.9879587845601651e+02  2.9882042458068503e+02  2.9853916174351190e+02  2.9846921775102248e+02  2.9840905417291356e+02  2.9835759942692846e+02  2.9831397474761457e+02  2.9827746026110003e+02  2.9824747002777258e+02  2.9822353350280167e+02  2.9820528173811539e+02  2.9819243721011657e+02  2.9818480652742710e+02  2.9818227552598717e+02  2.9818480644040415e+02  2.9819243697968761e+02  2.9820528125243322e+02  2.9822353259648327e+02  2.9824746848501366e+02  2.9827745782026108e+02  2.9806197147468208e+02  2.9815372910726808e+02  2.9798292919596969e+02  2.9791525054337495e+02  2.9785781826248359e+02  2.9780971160516617e+02  2.9777017767607879e+02  2.9773860972086629e+02  2.9771453071718201e+02  2.9769758113479691e+02  2.9768751008407730e+02  2.9768416932523797e+02  2.9768750979974413e+02  2.9769758049479782e+02  2.9771452958017619e+02  2.9773860787828590e+02  2.9777017485662537e+02  2.9780970748144273e+02  2.9769892684435456e+02  2.9760195076901641e+02  2.9751880612430858e+02  2.9744817405023326e+02  2.9738896032662558e+02  2.9734026552033970e+02  2.9730136183990038e+02  2.9727167532651595e+02  2.9725077238498181e+02  2.9723834994172131e+02  2.9723422873429234e+02  2.9723834940759656e+02  2.9729132282519635e+02  2.9725077123302242e+02  2.9731172379398106e+02  2.9727167339111401e+02  2.9734070416315660e+02  2.9730135887735202e+02  2.9734026121498829e+02  2.9726228199975128e+02  2.9716455657011659e+02  2.9708144125680428e+02  2.9701169670905853e+02  2.9695429854343530e+02  2.9690841425344581e+02  2.9687338508849206e+02  2.9684871213703525e+02  2.9683404603921900e+02  2.9687746036210353e+02  2.9682917991439717e+02  2.9683404522480646e+02  2.9684871041500065e+02  2.9687338227478881e+02  2.9690841007815749e+02  2.9695429265878425e+02  2.9684903197090642e+02  2.9675423309115723e+02  2.9667460581635027e+02  2.9660902209974438e+02  2.9655656112113070e+02  2.9651649172342690e+02  2.9648825870189989e+02  2.9647147254290866e+02  2.9652108635014514e+02  2.9646590230642192e+02  2.9647147143946455e+02  2.9646339949302603e+02  2.9656902329169725e+02  2.9637459082465745e+02  2.9630138546741847e+02  2.9624278991982379e+02  2.9625826864981428e+02  2.9619801260916898e+02  2.9622746766118013e+02  2.9616645087864930e+02  2.9620915287671198e+02  2.9614768112215245e+02  2.9614145187778405e+02  2.9614767974107173e+02  2.9610878899927695e+02  2.9620604139694711e+02  2.9602855885639002e+02  2.9596429905690093e+02  2.9591516873797889e+02  2.9588052609663282e+02  2.9585991918054685e+02  2.9585307937954718e+02  2.9587458125322308e+02  2.9597951792574219e+02  2.9585639317298245e+02  2.9578794455053429e+02  2.9571851005786033e+02  2.9574046413386765e+02  2.9566959643131366e+02  2.9584973551247055e+02  2.9557718308402434e+02  2.9550307506123914e+02  2.9549171151220634e+02  2.9539415544180548e+02  2.9948085582009992e+02  3.0000000000000000e+02  2.9945288478834800e+02  3.0000000000000000e+02  2.9942878335630689e+02  3.0000000000000000e+02  2.9940807698290263e+02  3.0000000000000000e+02  2.9939038314373124e+02  3.0000000000000000e+02  2.9937539118503139e+02  3.0000000000000000e+02  2.9936284839541918e+02  3.0000000000000000e+02  2.9935255011663367e+02  3.0000000000000000e+02  2.9934433259451481e+02  3.0000000000000000e+02  2.9933806776808888e+02  3.0000000000000000e+02  2.9933365948812542e+02  3.0000000000000000e+02  2.9933104083777096e+02  3.0000000000000000e+02  2.9933017234510766e+02  3.0000000000000000e+02  2.9933104095770233e+02  3.0000000000000000e+02  2.9933365970835723e+02  3.0000000000000000e+02  2.9933806804958567e+02  3.0000000000000000e+02  2.9934433287931637e+02  3.0000000000000000e+02  2.9935255032863267e+02  3.0000000000000000e+02  3.0000000000000000e+02  2.9936284844151538e+02  2.9901866993959777e+02  2.9896315555941146e+02  2.9891527403505376e+02  2.9887410651692647e+02  2.9883890795348606e+02  2.9880907069050721e+02  2.9878409884958535e+02  2.9876358989268817e+02  2.9874722116066243e+02  2.9873473998631641e+02  2.9872595647851165e+02  2.9872073838761628e+02  2.9871900766994997e+02  2.9872073851305828e+02  2.9872595669145807e+02  2.9873474021136258e+02  2.9874722128592941e+02  2.9876358977143707e+02  2.9878409830261108e+02  2.9880906950953585e+02  2.9852583829608551e+02  2.9845484482696810e+02  2.9839373630041416e+02  2.9834144136950471e+02  2.9829708062259374e+02  2.9825993294739681e+02  2.9822941083185992e+02  2.9820504204609824e+02  2.9818645602727457e+02  2.9817337385242428e+02  2.9816560105550161e+02  2.9816302279835605e+02  2.9816560108662628e+02  2.9817337386010695e+02  2.9818645590314509e+02  2.9820504162959213e+02  2.9822940991283866e+02  2.9825993127003943e+02  2.9831397110767733e+02  2.9829707789094300e+02  2.9835759425638048e+02  2.9834143725519579e+02  2.9804303083040003e+02  2.9796274139480158e+02  2.9789395364139961e+02  2.9783554953289399e+02  2.9778660674956922e+02  2.9774637037542055e+02  2.9771423147804506e+02  2.9768971094095394e+02  2.9767244741535745e+02  2.9766218861318436e+02  2.9765878541676324e+02  2.9766218846922061e+02  2.9767244705835930e+02  2.9768971023391180e+02  2.9771423021839496e+02  2.9774636829892722e+02  2.9778660353609905e+02  2.9785781246036061e+02  2.9783554481465353e+02  2.9791524265493518e+02  2.9789394701445434e+02  2.9796273243504652e+02  2.9767560038303844e+02  2.9757708578537097e+02  2.9749257260350720e+02  2.9742074111669382e+02  2.9736049526160190e+02  2.9731093319626649e+02  2.9727132451336678e+02  2.9724109272844316e+02  2.9721980204727237e+02  2.9720714770248389e+02  2.9720294936727805e+02  2.9720714732466291e+02  2.9721980121061449e+02  2.9724109127250358e+02  2.9727132220161280e+02  2.9731092972150532e+02  2.9738895429991572e+02  2.9736049025403793e+02  2.9744816587349362e+02  2.9742073415540000e+02  2.9751879533640931e+02  2.9749256323242525e+02  2.9757707353542514e+02  2.9723296903022498e+02  2.9713362709822962e+02  2.9704909469658782e+02  2.9697813042748624e+02  2.9691970717752389e+02  2.9687298944881775e+02  2.9683731558795728e+02  2.9681218414819728e+02  2.9679724381313412e+02  2.9679228647122488e+02  2.9679724316596321e+02  2.9681218276377803e+02  2.9683731328825547e+02  2.9687298597229329e+02  2.9691970218633827e+02  2.9701168870116862e+02  2.9697812351814679e+02  2.9704908541501294e+02  2.9713361496060247e+02  2.9723295355152521e+02  2.9681367893124985e+02  2.9692685788840470e+02  2.9671725669939298e+02  2.9663623182188604e+02  2.9656947327052535e+02  2.9651605692362881e+02  2.9647524840185190e+02  2.9644648967633282e+02  2.9642938904909079e+02  2.9642371420409592e+02  2.9642938812000477e+02  2.9648825639532475e+02  2.9644648772206091e+02  2.9651648801732438e+02  2.9647524523289655e+02  2.9655655572860962e+02  2.9651605226274387e+02  2.9660901465339788e+02  2.9656946676182019e+02  2.9667459588282958e+02  2.9663622304417225e+02  2.9671724518490601e+02  2.9642210328166533e+02  2.9652954402405197e+02  2.9633172993084725e+02  2.9625720898772391e+02  2.9619754340438357e+02  2.9615193812439395e+02  2.9611978742574200e+02  2.9610066532575638e+02  2.9609431886332288e+02  2.9610066412336209e+02  2.9616644801330665e+02  2.9611978492183351e+02  2.9619800805678511e+02  2.9615193412401749e+02  2.9624278338547521e+02  2.9619753762359670e+02  2.9630137657594474e+02  2.9625720106455748e+02  2.9633171944124098e+02  2.9642208976157480e+02  2.9616075494336076e+02  2.9606178247927141e+02  2.9598010576119060e+02  2.9591466914806722e+02  2.9586462808750042e+02  2.9582933751650648e+02  2.9580834294861421e+02  2.9580137417258601e+02  2.9585991755068022e+02  2.9580834149985139e+02  2.9582933451962634e+02  2.9586462334761961e+02  2.9591466238271130e+02  2.9598009661291928e+02  2.9606177053386432e+02  2.9582378464390149e+02  2.9593058436612472e+02  2.9573558074605847e+02  2.9566487105575044e+02  2.9566539757818089e+02  2.9561077153167372e+02  2.9557260534112976e+02  2.9554989478328622e+02  2.9554235552210463e+02  2.9554989312986783e+02  2.9557260193713421e+02  2.9561537419165631e+02  2.9552128386362523e+02  2.9544581104353034e+02  2.9544636146240936e+02  2.9538804087690096e+02  2.9534727141153826e+02  2.9533510097651487e+02  2.9525538067460184e+02  2.9519433337369730e+02  2.9515123767914571e+02  2.9517515409520433e+02  2.9509170283330269e+02  2.9944972384722996e+02  3.0000000000000000e+02  3.0000000000000000e+02  2.9942537251538658e+02  3.0000000000000000e+02  2.9940444090666324e+02  3.0000000000000000e+02  2.9938654661504142e+02  3.0000000000000000e+02  2.9937137889356165e+02  3.0000000000000000e+02  2.9935868479183461e+02  3.0000000000000000e+02  2.9934825932637864e+02  3.0000000000000000e+02  2.9933993838336920e+02  3.0000000000000000e+02  2.9933359355096769e+02  3.0000000000000000e+02  2.9932912837250564e+02  3.0000000000000000e+02  2.9932647569340310e+02  3.0000000000000000e+02  2.9932559589207568e+02  3.0000000000000000e+02  2.9932647586529367e+02  3.0000000000000000e+02  2.9932912869747992e+02  3.0000000000000000e+02  2.9933359399156876e+02  3.0000000000000000e+02  2.9933993888382577e+02  3.0000000000000000e+02  2.9934825981316209e+02  3.0000000000000000e+02  2.9935868517450638e+02  3.0000000000000000e+02  2.9937137906600344e+02  2.9895686537919272e+02  2.9890848600458679e+02  2.9886686973789784e+02  2.9883127177482049e+02  2.9880108428519583e