<?xml version="1.0"?>
<VTKFile type="UnstructuredGrid"  version="0.1"  >
<UnstructuredGrid>
<Piece  NumberOfPoints="7537" NumberOfCells="38188">
<Points>
<DataArray  type="Float64"  NumberOfComponents="3"  format="ascii">0.65 0.375 0  0.675 0.375 0  0.675 0.4 0  0.675 0.4 0.025  0.65 0.4 0  0.7 0.4 0  0.7 0.4 0.025  0.725 0.375 0  0.75 0.375 0  0.75 0.4 0  0.75 0.4 0.025  0.725 0.4 0  0.775 0.375 0  0.775 0.4 0  0.775 0.4 0.025  0.8 0.4 0  0.8 0.4 0.025  0.6 0.4 0  0.625 0.4 0  0.625 0.425 0  0.625 0.425 0.025  0.6 0.425 0  0.65 0.425 0  0.65 0.425 0.025  0.675 0.425 0  0.675 0.425 0.025  0.7 0.425 0  0.7 0.425 0.025  0.725 0.425 0  0.725 0.425 0.025  0.75 0.425 0  0.75 0.425 0.025  0.775 0.425 0  0.775 0.425 0.025  0.8 0.425 0  0.8 0.425 0.025  0.825 0.4 0  0.825 0.425 0  0.825 0.425 0.025  0.85 0.4 0  0.85 0.425 0  0.85 0.425 0.025  0.875 0.4 0  0.875 0.425 0  0.875 0.425 0.025  0.9 0.4 0  0.9 0.425 0  0.9 0.425 0.025  0.925 0.425 0  0.925 0.425 0.025  0.525 0.425 0  0.55 0.425 0  0.55 0.45 0  0.55 0.45 0.025  0.525 0.45 0  0.575 0.425 0  0.575 0.45 0  0.575 0.45 0.025  0.6 0.45 0  0.6 0.45 0.025  0.625 0.45 0  0.625 0.45 0.025  0.65 0.45 0  0.65 0.45 0.025  0.675 0.45 0  0.675 0.45 0.025  0.7 0.45 0  0.7 0.45 0.025  0.725 0.45 0  0.725 0.45 0.025  0.75 0.45 0  0.75 0.45 0.025  0.775 0.45 0  0.775 0.45 0.025  0.8 0.45 0  0.8 0.45 0.025  0.825 0.45 0  0.825 0.45 0.025  0.85 0.45 0  0.85 0.45 0.025  0.875 0.45 0  0.875 0.45 0.025  0.9 0.45 0  0.9 0.45 0.025  0.925 0.45 0  0.925 0.45 0.025  0.95 0.45 0  0.95 0.45 0.025  0.475 0.45 0  0.5 0.45 0  0.5 0.475 0  0.5 0.475 0.025  0.475 0.475 0  0.525 0.475 0  0.525 0.475 0.025  0.55 0.475 0  0.55 0.475 0.025  0.575 0.475 0  0.575 0.475 0.025  0.6 0.475 0  0.6 0.475 0.025  0.625 0.475 0  0.625 0.475 0.025  0.65 0.475 0  0.65 0.475 0.025  0.675 0.475 0  0.675 0.475 0.025  0.7 0.475 0  0.7 0.475 0.025  0.725 0.475 0  0.725 0.475 0.025  0.75 0.475 0  0.75 0.475 0.025  0.775 0.475 0  0.775 0.475 0.025  0.8 0.475 0  0.8 0.475 0.025  0.825 0.475 0  0.825 0.475 0.025  0.85 0.475 0  0.85 0.475 0.025  0.875 0.475 0  0.875 0.475 0.025  0.9 0.475 0  0.9 0.475 0.025  0.925 0.475 0  0.925 0.475 0.025  0.95 0.475 0  0.95 0.475 0.025  0.975 0.45 0  0.975 0.475 0  0.975 0.475 0.025  0.975 0.45 0.025  1 0.45 0  1 0.475 0  1 0.475 0.025  0.425 0.475 0  0.45 0.475 0  0.45 0.5 0  0.45 0.5 0.025  0.425 0.5 0  0.475 0.5 0  0.475 0.5 0.025  0.5 0.5 0  0.5 0.5 0.025  0.525 0.5 0  0.525 0.5 0.025  0.55 0.5 0  0.55 0.5 0.025  0.575 0.5 0  0.575 0.5 0.025  0.6 0.5 0  0.6 0.5 0.025  0.625 0.5 0  0.625 0.5 0.025  0.65 0.5 0  0.65 0.5 0.025  0.675 0.5 0  0.675 0.5 0.025  0.7 0.5 0  0.7 0.5 0.025  0.725 0.5 0  0.725 0.5 0.025  0.75 0.5 0  0.75 0.5 0.025  0.775 0.5 0  0.775 0.5 0.025  0.8 0.5 0  0.8 0.5 0.025  0.825 0.5 0  0.825 0.5 0.025  0.85 0.5 0  0.85 0.5 0.025  0.875 0.5 0  0.875 0.5 0.025  0.9 0.5 0  0.9 0.5 0.025  0.925 0.5 0  0.925 0.5 0.025  0.95 0.5 0  0.95 0.5 0.025  0.975 0.5 0  0.975 0.5 0.025  1 0.5 0  1 0.5 0.025  0.45 0.525 0  0.45 0.525 0.025  0.425 0.525 0  0.475 0.525 0  0.475 0.525 0.025  0.5 0.525 0  0.5 0.525 0.025  0.525 0.525 0  0.525 0.525 0.025  0.55 0.525 0  0.55 0.525 0.025  0.575 0.525 0  0.575 0.525 0.025  0.6 0.525 0  0.6 0.525 0.025  0.625 0.525 0  0.625 0.525 0.025  0.65 0.525 0  0.65 0.525 0.025  0.675 0.525 0  0.675 0.525 0.025  0.7 0.525 0  0.7 0.525 0.025  0.725 0.525 0  0.725 0.525 0.025  0.75 0.525 0  0.75 0.525 0.025  0.775 0.525 0  0.775 0.525 0.025  0.8 0.525 0  0.8 0.525 0.025  0.825 0.525 0  0.825 0.525 0.025  0.85 0.525 0  0.85 0.525 0.025  0.875 0.525 0  0.875 0.525 0.025  0.9 0.525 0  0.9 0.525 0.025  0.925 0.525 0  0.925 0.525 0.025  0.95 0.525 0  0.95 0.525 0.025  0.975 0.525 0  0.975 0.525 0.025  1 0.525 0  1 0.525 0.025  0.45 0.55 0  0.45 0.55 0.025  0.425 0.525 0.025  0.425 0.55 0  0.425 0.55 0.025  0.475 0.55 0  0.475 0.55 0.025  0.5 0.55 0  0.5 0.55 0.025  0.525 0.55 0  0.525 0.55 0.025  0.55 0.55 0  0.55 0.55 0.025  0.575 0.55 0  0.575 0.55 0.025  0.6 0.55 0  0.6 0.55 0.025  0.625 0.55 0  0.625 0.55 0.025  0.65 0.55 0  0.65 0.55 0.025  0.675 0.55 0  0.675 0.55 0.025  0.7 0.55 0  0.7 0.55 0.025  0.725 0.55 0  0.725 0.55 0.025  0.75 0.55 0  0.75 0.55 0.025  0.775 0.55 0  0.775 0.55 0.025  0.8 0.55 0  0.8 0.55 0.025  0.825 0.55 0  0.825 0.55 0.025  0.85 0.55 0  0.85 0.55 0.025  0.875 0.55 0  0.875 0.55 0.025  0.9 0.55 0  0.9 0.55 0.025  0.925 0.55 0  0.925 0.55 0.025  0.95 0.55 0  0.95 0.55 0.025  0.975 0.55 0  0.975 0.55 0.025  1 0.55 0  1 0.55 0.025  0.45 0.575 0  0.45 0.575 0.025  0.475 0.575 0  0.475 0.575 0.025  0.5 0.575 0  0.5 0.575 0.025  0.525 0.575 0  0.525 0.575 0.025  0.55 0.575 0  0.55 0.575 0.025  0.575 0.575 0  0.575 0.575 0.025  0.6 0.575 0  0.6 0.575 0.025  0.625 0.575 0  0.625 0.575 0.025  0.65 0.575 0  0.65 0.575 0.025  0.675 0.575 0  0.675 0.575 0.025  0.7 0.575 0  0.7 0.575 0.025  0.725 0.575 0  0.725 0.575 0.025  0.75 0.575 0  0.75 0.575 0.025  0.775 0.575 0  0.775 0.575 0.025  0.8 0.575 0  0.8 0.575 0.025  0.825 0.575 0  0.825 0.575 0.025  0.85 0.575 0  0.85 0.575 0.025  0.875 0.575 0  0.875 0.575 0.025  0.9 0.575 0  0.9 0.575 0.025  0.925 0.575 0  0.925 0.575 0.025  0.95 0.575 0  0.95 0.575 0.025  0.975 0.575 0  0.975 0.575 0.025  1 0.575 0  1 0.575 0.025  0.475 0.6 0  0.475 0.6 0.025  0.5 0.6 0  0.5 0.6 0.025  0.525 0.6 0  0.525 0.6 0.025  0.55 0.6 0  0.55 0.6 0.025  0.575 0.6 0  0.575 0.6 0.025  0.6 0.6 0  0.6 0.6 0.025  0.625 0.6 0  0.625 0.6 0.025  0.65 0.6 0  0.65 0.6 0.025  0.675 0.6 0  0.675 0.6 0.025  0.7 0.6 0  0.7 0.6 0.025  0.725 0.6 0  0.725 0.6 0.025  0.75 0.6 0  0.75 0.6 0.025  0.775 0.6 0  0.775 0.6 0.025  0.8 0.6 0  0.8 0.6 0.025  0.825 0.6 0  0.825 0.6 0.025  0.85 0.6 0  0.85 0.6 0.025  0.875 0.6 0  0.875 0.6 0.025  0.9 0.6 0  0.9 0.6 0.025  0.925 0.6 0  0.925 0.6 0.025  0.95 0.6 0  0.95 0.6 0.025  0.975 0.6 0  0.975 0.6 0.025  1 0.6 0  1 0.6 0.025  0.5 0.625 0  0.5 0.625 0.025  0.475 0.625 0.025  0.525 0.625 0  0.525 0.625 0.025  0.55 0.625 0  0.55 0.625 0.025  0.575 0.625 0  0.575 0.625 0.025  0.6 0.625 0  0.6 0.625 0.025  0.625 0.625 0  0.625 0.625 0.025  0.65 0.625 0  0.65 0.625 0.025  0.675 0.625 0  0.675 0.625 0.025  0.7 0.625 0  0.7 0.625 0.025  0.725 0.625 0  0.725 0.625 0.025  0.75 0.625 0  0.75 0.625 0.025  0.775 0.625 0  0.775 0.625 0.025  0.8 0.625 0  0.8 0.625 0.025  0.825 0.625 0  0.825 0.625 0.025  0.85 0.625 0  0.85 0.625 0.025  0.875 0.625 0  0.875 0.625 0.025  0.9 0.625 0  0.9 0.625 0.025  0.925 0.625 0  0.925 0.625 0.025  0.95 0.625 0  0.95 0.625 0.025  0.975 0.625 0  0.975 0.625 0.025  1 0.625 0  1 0.625 0.025  0.525 0.65 0  0.525 0.65 0.025  0.5 0.65 0  0.5 0.65 0.025  0.55 0.65 0  0.55 0.65 0.025  0.575 0.65 0  0.575 0.65 0.025  0.6 0.65 0  0.6 0.65 0.025  0.625 0.65 0  0.625 0.65 0.025  0.65 0.65 0  0.65 0.65 0.025  0.675 0.65 0  0.675 0.65 0.025  0.7 0.65 0  0.7 0.65 0.025  0.725 0.65 0  0.725 0.65 0.025  0.75 0.65 0  0.75 0.65 0.025  0.775 0.65 0  0.775 0.65 0.025  0.8 0.65 0  0.8 0.65 0.025  0.825 0.65 0  0.825 0.65 0.025  0.85 0.65 0  0.85 0.65 0.025  0.875 0.65 0  0.875 0.65 0.025  0.9 0.65 0  0.9 0.65 0.025  0.925 0.65 0  0.925 0.65 0.025  0.95 0.65 0  0.95 0.65 0.025  0.975 0.65 0  0.975 0.65 0.025  1 0.65 0  1 0.65 0.025  0.525 0.675 0  0.525 0.675 0.025  0.5 0.675 0  0.5 0.675 0.025  0.55 0.675 0  0.55 0.675 0.025  0.575 0.675 0  0.575 0.675 0.025  0.6 0.675 0  0.6 0.675 0.025  0.625 0.675 0  0.625 0.675 0.025  0.65 0.675 0  0.65 0.675 0.025  0.675 0.675 0  0.675 0.675 0.025  0.7 0.675 0  0.7 0.675 0.025  0.725 0.675 0  0.725 0.675 0.025  0.75 0.675 0  0.75 0.675 0.025  0.775 0.675 0  0.775 0.675 0.025  0.8 0.675 0  0.8 0.675 0.025  0.825 0.675 0  0.825 0.675 0.025  0.85 0.675 0  0.85 0.675 0.025  0.875 0.675 0  0.875 0.675 0.025  0.9 0.675 0  0.9 0.675 0.025  0.925 0.675 0  0.925 0.675 0.025  0.95 0.675 0  0.95 0.675 0.025  0.975 0.675 0  0.975 0.675 0.025  1 0.675 0  1 0.675 0.025  0.525 0.7 0.025  0.55 0.7 0  0.55 0.7 0.025  0.575 0.7 0  0.575 0.7 0.025  0.6 0.7 0  0.6 0.7 0.025  0.625 0.7 0  0.625 0.7 0.025  0.65 0.7 0  0.65 0.7 0.025  0.675 0.7 0  0.675 0.7 0.025  0.7 0.7 0  0.7 0.7 0.025  0.725 0.7 0  0.725 0.7 0.025  0.75 0.7 0  0.75 0.7 0.025  0.775 0.7 0  0.775 0.7 0.025  0.8 0.7 0  0.8 0.7 0.025  0.825 0.7 0  0.825 0.7 0.025  0.85 0.7 0  0.85 0.7 0.025  0.875 0.7 0  0.875 0.7 0.025  0.9 0.7 0  0.9 0.7 0.025  0.925 0.7 0  0.925 0.7 0.025  0.95 0.7 0  0.95 0.7 0.025  0.975 0.7 0  0.975 0.7 0.025  1 0.7 0  1 0.7 0.025  0.575 0.725 0  0.575 0.725 0.025  0.6 0.725 0  0.6 0.725 0.025  0.625 0.725 0  0.625 0.725 0.025  0.65 0.725 0  0.65 0.725 0.025  0.675 0.725 0  0.675 0.725 0.025  0.7 0.725 0  0.7 0.725 0.025  0.725 0.725 0  0.725 0.725 0.025  0.75 0.725 0  0.75 0.725 0.025  0.775 0.725 0  0.775 0.725 0.025  0.8 0.725 0  0.8 0.725 0.025  0.825 0.725 0  0.825 0.725 0.025  0.85 0.725 0  0.85 0.725 0.025  0.875 0.725 0  0.875 0.725 0.025  0.9 0.725 0  0.9 0.725 0.025  0.925 0.725 0  0.925 0.725 0.025  0.95 0.725 0  0.95 0.725 0.025  0.975 0.725 0  0.975 0.725 0.025  1 0.725 0  1 0.725 0.025  0.6 0.75 0  0.6 0.75 0.025  0.575 0.75 0  0.625 0.75 0  0.625 0.75 0.025  0.65 0.75 0  0.65 0.75 0.025  0.675 0.75 0  0.675 0.75 0.025  0.7 0.75 0  0.7 0.75 0.025  0.725 0.75 0  0.725 0.75 0.025  0.75 0.75 0  0.75 0.75 0.025  0.775 0.75 0  0.775 0.75 0.025  0.8 0.75 0  0.8 0.75 0.025  0.825 0.75 0  0.825 0.75 0.025  0.85 0.75 0  0.85 0.75 0.025  0.875 0.75 0  0.875 0.75 0.025  0.9 0.75 0  0.9 0.75 0.025  0.925 0.75 0  0.925 0.75 0.025  0.95 0.75 0  0.95 0.75 0.025  0.975 0.75 0  0.975 0.75 0.025  1 0.75 0  1 0.75 0.025  0.6 0.775 0  0.6 0.775 0.025  0.625 0.775 0  0.625 0.775 0.025  0.65 0.775 0  0.65 0.775 0.025  0.675 0.775 0  0.675 0.775 0.025  0.7 0.775 0  0.7 0.775 0.025  0.725 0.775 0  0.725 0.775 0.025  0.75 0.775 0  0.75 0.775 0.025  0.775 0.775 0  0.775 0.775 0.025  0.8 0.775 0  0.8 0.775 0.025  0.825 0.775 0  0.825 0.775 0.025  0.85 0.775 0  0.85 0.775 0.025  0.875 0.775 0  0.875 0.775 0.025  0.9 0.775 0  0.9 0.775 0.025  0.925 0.775 0  0.925 0.775 0.025  0.95 0.775 0  0.95
[...]
<PointData  Scalars="f_11"> 
<DataArray  type="Float64"  Name="f_11"  format="ascii">3.0000000000000000e+02  3.0000000000000000e+02  3.0000000000000000e+02  2.9938109625942428e+02  3.0000000000000000e+02  3.0000000000000000e+02  2.9939583978710266e+02  3.0000000000000000e+02  3.0000000000000000e+02  3.0000000000000000e+02  2.9943363711092468e+02  3.0000000000000000e+02  3.0000000000000000e+02  3.0000000000000000e+02  2.9945738390085393e+02  3.0000000000000000e+02  2.9948496531043872e+02  3.0000000000000000e+02  3.0000000000000000e+02  3.0000000000000000e+02  2.9935255032863364e+02  3.0000000000000000e+02  3.0000000000000000e+02  2.9936284844151601e+02  3.0000000000000000e+02  2.9937539095676232e+02  3.0000000000000000e+02  2.9939038251951865e+02  3.0000000000000000e+02  2.9940807583109944e+02  3.0000000000000000e+02  2.9942878153928984e+02  3.0000000000000000e+02  2.9945288216802663e+02  3.0000000000000000e+02  2.9948085226543145e+02  3.0000000000000000e+02  3.0000000000000000e+02  2.9951328859093769e+02  3.0000000000000000e+02  3.0000000000000000e+02  2.9955095741290904e+02  3.0000000000000000e+02  3.0000000000000000e+02  2.9959487288925408e+02  3.0000000000000000e+02  3.0000000000000000e+02  2.9964643639086114e+02  3.0000000000000000e+02  2.9970770671056584e+02  3.0000000000000000e+02  3.0000000000000000e+02  3.0000000000000000e+02  2.9932912869748037e+02  3.0000000000000000e+02  3.0000000000000000e+02  3.0000000000000000e+02  2.9933359399156939e+02  3.0000000000000000e+02  2.9933993888382651e+02  3.0000000000000000e+02  2.9934825981316283e+02  3.0000000000000000e+02  2.9935868517450695e+02  3.0000000000000000e+02  2.9937137906600418e+02  3.0000000000000000e+02  2.9938654645720482e+02  3.0000000000000000e+02  2.9940444028700739e+02  3.0000000000000000e+02  2.9942537129426404e+02  3.0000000000000000e+02  2.9944972188158880e+02  3.0000000000000000e+02  2.9947796619424901e+02  3.0000000000000000e+02  2.9951070023931601e+02  3.0000000000000000e+02  2.9954868912261401e+02  3.0000000000000000e+02  2.9959294538382051e+02  3.0000000000000000e+02  2.9964486829905525e+02  3.0000000000000000e+02  2.9970651410532531e+02  2.9999999999999994e+02  2.9978117874913420e+02  3.0000000000000000e+02  3.0000000000000000e+02  3.0000000000000000e+02  2.9932287630595636e+02  3.0000000000000000e+02  3.0000000000000000e+02  2.9932376308825275e+02  3.0000000000000000e+02  2.9932643632377341e+02  3.0000000000000000e+02  2.9933093570010976e+02  3.0000000000000000e+02  2.9933732848697946e+02  3.0000000000000000e+02  2.9934571129440917e+02  3.0000000000000000e+02  2.9935621271025843e+02  3.0000000000000000e+02  2.9936899702667171e+02  3.0000000000000000e+02  2.9938426938255787e+02  3.0000000000000000e+02  2.9940228283102095e+02  3.0000000000000000e+02  2.9942334813519142e+02  3.0000000000000000e+02  2.9944784759409094e+02  3.0000000000000000e+02  2.9947625508220847e+02  3.0000000000000000e+02  2.9950916613060679e+02  3.0000000000000000e+02  2.9954734513062721e+02  3.0000000000000000e+02  2.9959180364493938e+02  3.0000000000000000e+02  2.9964393970048582e+02  3.0000000000000000e+02  2.9970580802401952e+02  2.9999999999999994e+02  2.9978070283195746e+02  3.0000000000000000e+02  3.0000000000000000e+02  2.9987457866409045e+02  2.9987481862804526e+02  3.0000000000000000e+02  3.0000000000000000e+02  3.0000000000000000e+02  3.0000000000000000e+02  3.0000000000000000e+02  3.0000000000000000e+02  2.9932554282274702e+02  3.0000000000000000e+02  3.0000000000000000e+02  2.9932286303852015e+02  3.0000000000000000e+02  2.9932197424985486e+02  3.0000000000000000e+02  2.9932286331639443e+02  3.0000000000000000e+02  2.9932554336162974e+02  3.0000000000000000e+02  2.9933005410077931e+02  3.0000000000000000e+02  2.9933646284676769e+02  3.0000000000000000e+02  2.9934486626465468e+02  3.0000000000000000e+02  2.9935539300383425e+02  3.0000000000000000e+02  2.9936820741754548e+02  3.0000000000000000e+02  2.9938351469678582e+02  3.0000000000000000e+02  2.9940156792762093e+02  3.0000000000000000e+02  2.9942267787554118e+02  3.0000000000000000e+02  2.9944722679887678e+02  3.0000000000000000e+02  2.9947568847555885e+02  3.0000000000000000e+02  2.9950865827191762e+02  3.0000000000000000e+02  2.9954690033573127e+02  3.0000000000000000e+02  2.9959142589966319e+02  3.0000000000000000e+02  2.9964363257124722e+02  3.0000000000000000e+02  2.9970557457200658e+02  2.9999999999999994e+02  2.9978054554012357e+02  3.0000000000000000e+02  2.9987449939204953e+02  3.0000000000000000e+02  3.0000000000000000e+02  3.0000000000000000e+02  2.9932643620173491e+02  3.0000000000000000e+02  3.0000000000000000e+02  2.9932376322503001e+02  3.0000000000000000e+02  2.9932287671921142e+02  3.0000000000000000e+02  2.9932376355374396e+02  3.0000000000000000e+02  2.9932643684344083e+02  3.0000000000000000e+02  2.9933093627702362e+02  3.0000000000000000e+02  2.9933732912524249e+02  3.0000000000000000e+02  2.9934571199894543e+02  3.0000000000000000e+02  2.9935621348646856e+02  3.0000000000000000e+02  2.9936899787993940e+02  3.0000000000000000e+02  2.9938427031758255e+02  3.0000000000000000e+02  2.9940228385096032e+02  3.0000000000000000e+02  2.9942334924059577e+02  3.0000000000000000e+02  2.9944784878161556e+02  3.0000000000000000e+02  2.9947625634309566e+02  3.0000000000000000e+02  2.9950916744892317e+02  3.0000000000000000e+02  2.9954734648122292e+02  3.0000000000000000e+02  2.9959180499103377e+02  3.0000000000000000e+02  2.9964394099062031e+02  3.0000000000000000e+02  2.9970580918772254e+02  2.9999999999999994e+02  2.9978070377240016e+02  3.0000000000000000e+02  2.9987457924296166e+02  3.0000000000000000e+02  3.0000000000000000e+02  3.0000000000000000e+02  2.9932912900298413e+02  2.9933093535386121e+02  3.0000000000000000e+02  2.9933359407732007e+02  3.0000000000000000e+02  2.9932647642568560e+02  3.0000000000000000e+02  2.9932559672558915e+02  3.0000000000000000e+02  2.9932647680155537e+02  3.0000000000000000e+02  2.9932912974027954e+02  3.0000000000000000e+02  2.9933359514697702e+02  3.0000000000000000e+02  2.9933994016000662e+02  3.0000000000000000e+02  2.9934826121996042e+02  3.0000000000000000e+02  2.9935868672277542e+02  3.0000000000000000e+02  2.9937138076663138e+02  3.0000000000000000e+02  2.9938654831979511e+02  3.0000000000000000e+02  2.9940444231817702e+02  3.0000000000000000e+02  2.9942537349551372e+02  3.0000000000000000e+02  2.9944972424672301e+02  3.0000000000000000e+02  2.9947796870631680e+02  3.0000000000000000e+02  2.9951070286704794e+02  3.0000000000000000e+02  2.9954869181628135e+02  3.0000000000000000e+02  2.9959294807033081e+02  3.0000000000000000e+02  2.9964487087577038e+02  3.0000000000000000e+02  2.9970651643129162e+02  2.9999999999999994e+02  2.9978118063028717e+02  3.0000000000000000e+02  2.9987481978681325e+02  3.0000000000000000e+02  3.0000000000000000e+02  3.0000000000000000e+02  2.9933366045902716e+02  3.0000000000000000e+02  2.9933104195765833e+02  3.0000000000000000e+02  2.9933017361283163e+02  3.0000000000000000e+02  2.9933104237527908e+02  3.0000000000000000e+02  2.9933366128124499e+02  3.0000000000000000e+02  2.9933806978670924e+02  3.0000000000000000e+02  2.9934433479280688e+02  3.0000000000000000e+02  2.9935255243323849e+02  3.0000000000000000e+02  2.9936285075362844e+02  3.0000000000000000e+02  2.9937539349299686e+02  3.0000000000000000e+02  2.9939038529477438e+02  3.0000000000000000e+02  2.9940807885603380e+02  3.0000000000000000e+02  2.9942878481714047e+02  3.0000000000000000e+02  2.9945288569072710e+02  3.0000000000000000e+02  2.9948085600897201e+02  3.0000000000000000e+02  2.9951329250992364e+02  3.0000000000000000e+02  2.9955096143420468e+02  3.0000000000000000e+02  2.9959487690443302e+02  3.0000000000000000e+02  2.9964644024670491e+02  3.0000000000000000e+02  2.9970771019565512e+02  2.9999999999999994e+02  2.9978198556518612e+02  3.0000000000000000e+02  2.9987522580814095e+02  3.0000000000000000e+02  3.0000000000000000e+02  3.0000000000000000e+02  2.9933752642488253e+02  3.0000000000000000e+02  2.9933667402724939e+02  3.0000000000000000e+02  2.9933752687715963e+02  3.0000000000000000e+02  2.9934009793321127e+02  3.0000000000000000e+02  2.9934442642176941e+02  3.0000000000000000e+02  2.9935057887728868e+02  3.0000000000000000e+02  2.9935865095512804e+02  3.0000000000000000e+02  2.9936877014753770e+02  3.0000000000000000e+02  2.9938109961381213e+02  3.0000000000000000e+02  2.9939584345273641e+02  3.0000000000000000e+02  2.9941325392628528e+02  3.0000000000000000e+02  2.9943364143621022e+02  3.0000000000000000e+02  2.9945738855053577e+02  3.0000000000000000e+02  2.9948497025515786e+02  3.0000000000000000e+02  2.9951698424507185e+02  3.0000000000000000e+02  2.9955419831750322e+02  3.0000000000000000e+02  2.9959762882715762e+02  3.0000000000000000e+02  2.9964868004772063e+02  3.0000000000000000e+02  2.9970941436207096e+02  2.9999999999999994e+02  2.9978313483581996e+02  3.0000000000000000e+02  2.9987580554117102e+02  3.0000000000000000e+02  3.0000000000000000e+02  3.0000000000000000e+02  2.9934519361015595e+02  2.9934602541459054e+02  3.0000000000000000e+02  2.9934602589283446e+02  3.0000000000000000e+02  2.9934853510952252e+02  3.0000000000000000e+02  2.9935276015588772e+02  3.0000000000000000e+02  2.9935876703533211e+02  3.0000000000000000e+02  2.9936665070377762e+02  3.0000000000000000e+02  2.9937653783218718e+02  3.0000000000000000e+02  2.9938859069931181e+02  3.0000000000000000e+02  2.9940301254429710e+02  3.0000000000000000e+02  2.9942005488920614e+02  3.0000000000000000e+02  2.9944002763323056e+02  3.0000000000000000e+02  2.9946331321403420e+02  3.0000000000000000e+02  2.9949038700723446e+02  3.0000000000000000e+02  2.9952184777077190e+02  3.0000000000000000e+02  2.9955846518418963e+02  3.0000000000000000e+02  2.9960125842569221e+02  3.0000000000000000e+02  2.9965163560839846e+02  3.0000000000000000e+02  2.9971166396939356e+02  2.9999999999999994e+02  2.9978465232607527e+02  3.0000000000000000e+02  2.9987657109086126e+02  3.0000000000000000e+02  3.0000000000000000e+02  3.0000000000000000e+02  2.9935666653776690e+02  3.0000000000000000e+02  2.9935585953851762e+02  3.0000000000000000e+02  2.9935909973369320e+02  3.0000000000000000e+02  2.9936319756337508e+02  3.0000000000000000e+02  2.9936902528935224e+02  3.0000000000000000e+02  2.9937667688193937e+02  3.0000000000000000e+02  2.9938627783705499e+02  3.0000000000000000e+02  2.9939798914457151e+02  3.0000000000000000e+02  2.9941201273959604e+02  3.0000000000000000e+02  2.9942859894932559e+02  3.0000000000000000e+02  2.9944805673890193e+02  3.0000000000000000e+02  2.9947076805139125e+02  3.0000000000000000e+02  2.9949720840924476e+02  3.0000000000000000e+02  2.9952797757532051e+02  3.0000000000000000e+02  2.9956384730806752e+02  3.0000000000000000e+02  2.9960584013004330e+02  3.0000000000000000e+02  2.9965536889824352e+02  3.0000000000000000e+02  2.9971450702670739e+02  2.9999999999999994e+02  2.9978657081741073e+02  3.0000000000000000e+02  2.9987753908950390e+02  3.0000000000000000e+02  3.0000000000000000e+02  3.0000000000000000e+02  2.9936961105772997e+02  3.0000000000000000e+02  2.9936883411786857e+02  3.0000000000000000e+02  2.9937195386256599e+02  3.0000000000000000e+02  2.9937590035017502e+02  3.0000000000000000e+02  2.9938151477649677e+02  3.0000000000000000e+02  2.9938888975922885e+02  3.0000000000000000e+02  2.9939814915755659e+02  3.0000000000000000e+02  2.9940945212690775e+02  3.0000000000000000e+02  2.9942299868580574e+02  3.0000000000000000e+02  2.9943903731239465e+02  3.0000000000000000e+02  2.9945787537843597e+02  3.0000000000000000e+02  2.9947989371836297e+02  3.0000000000000000e+02  2.9950556749932235e+02  3.0000000000000000e+02  2.9953549718230556e+02  3.0000000000000000e+02  2.9957045659122582e+02  3.0000000000000000e+02  2.9961147197831770e+02  3.0000000000000000e+02  2.9965996182777513e+02  3.0000000000000000e+02  2.9971800718388880e+02  2.9999999999999994e+02  2.9978893387295045e+02  3.0000000000000000e+02  2.9987873167218356e+02  3.0000000000000000e+02  3.0000000000000000e+02  2.9938506180269223e+02  3.0000000000000000e+02  2.9938729968840880e+02  3.0000000000000000e+02  2.9939107040343669e+02  3.0000000000000000e+02  2.9939643686549255e+02  3.0000000000000000e+02  2.9940348987635906e+02  3.0000000000000000e+02  2.9941235106635850e+02  3.0000000000000000e+02  2.9942317704207210e+02  3.0000000000000000e+02  2.9943616508157822e+02  3.0000000000000000e+02  2.9945156090314788e+02  3.0000000000000000e+02  2.9946966932389154e+02  3.0000000000000000e+02  2.9949086911344847e+02  3.0000000000000000e+02  2.9951563421233402e+02  3.0000000000000000e+02  2.9954456510093650e+02  3.0000000000000000e+02  2.9957843731864688e+02  3.0000000000000000e+02  2.9961828098430277e+02  3.0000000000000000e+02  2.9966552099635868e+02  3.0000000000000000e+02  2.9972224760415298e+02  2.9999999999999994e+02  2.9979179858788757e+02  3.0000000000000000e+02  2.9988017790705015e+02  3.0000000000000000e+02  3.0000000000000000e+02  3.0000000000000000e+02  2.9940895672749548e+02  3.0000000000000000e+02  2.9941404017451077e+02  3.0000000000000000e+02  2.9942072517111592e+02  3.0000000000000000e+02  2.9942913037463831e+02  3.0000000000000000e+02  2.9943940892750447e+02  3.0000000000000000e+02  2.9945175428577517e+02  3.0000000000000000e+02  2.9946640817504459e+02  3.0000000000000000e+02  2.9948367150522154e+02  3.0000000000000000e+02  2.9950391956495810e+02  3.0000000000000000e+02  2.9952762367866137e+02  3.0000000000000000e+02  2.9955538311764280e+02  3.0000000000000000e+02  2.9958797425412325e+02  3.0000000000000000e+02  2.9962643077022966e+02  3.0000000000000000e+02  2.9967218451889437e+02  3.0000000000000000e+02  2.9972733659065369e+02  2.9999999999999994e+02  2.9979523962047830e+02  3.0000000000000000e+02  2.9988191590373594e+02  3.0000000000000000e+02  3.0000000000000000e+02  3.0000000000000000e+02  2.9943463027637875e+02  3.0000000000000000e+02  3.0000000000000000e+02  2.9944090081287288e+02  3.0000000000000000e+02  2.9944879143222357e+02  3.0000000000000000e+02  2.9945845066664140e+02  3.0000000000000000e+02  2.9947006676409200e+02  3.0000000000000000e+02  2.9948387583177157e+02  3.0000000000000000e+02  2.9950017302465045e+02  3.0000000000000000e+02  2.9951932812759674e+02  3.0000000000000000e+02  2.9954180774345167e+02  3.0000000000000000e+02  2.9956820790347820e+02  3.0000000000000000e+02  2.9959930409720261e+02  3.0000000000000000e+02  2.9963613250570700e+02  3.0000000000000000e+02  2.9968013194274414e+02  3.0000000000000000e+02  2.9973341586802837e+02  2.9999999999999994e+02  2.9979935519170954e+02  3.0000000000000000e+02  2.9988399597547686e+02  3.0000000000000000e+02  3.0000000000000000e+02  3.0000000000000000e+02  2.9945858336551186e+02  3.0000000000000000e+02  2.9946439301882765e+02  3.0000000000000000e+02  2.9947171014005249e+02  3.0000000000000000e+02  2.9948067725098485e+02  3.0000000000000000e+02  2.9949147565890951e+02  3.0000000000000000e+02  2.9950433376302954e+02  3.0000000000000000e+02  2.9951953850656702e+02  3.0000000000000000e+02  2.9953745136684961e+02  3.0000000000000000e+02  2.9955853114944733e+02  3.0000000000000000e+02  2.9958336746131420e+02  3.0000000000000000e+02  2.9961273190941102e+02  3.0000000000000000e+02  2.9964766082042485e+02  3.0000000000000000e+02  2.9968959890974241e+02  3.0000000000000000e+02  2.9974067302844344e+02  2.9999999999999994e+02  2.9980427623267929e+02  3.0000000000000000e+02  2.9988648550906407e+02  3.0000000000000000e+02  3.0000000000000000e+02  3.0000000000000000e+02  2.9949166898870737e+02  3.0000000000000000e+02  2.9949835410877614e+02  3.0000000000000000e+02  2.9950655623337292e+02  3.0000000000000000e+02  2.9951644762094156e+02  3.0000000000000000e+02  2.9952824634844524e+02  3.0000000000000000e+02  2.9954222796879321e+02  3.0000000000000000e+02  2.9955874187399456e+02  3.0000000000000000e+02  2.9957823471607725e+02  3.0000000000000000e+02  2.9960128487119982e+02  3.0000000000000000e+02  2.9962865511851282e+02  3.0000000000000000e+02  2.9966137743571500e+02  3.0000000000000000e+02  2.9970089935096263e+02  3.0000000000000000e+02  2.9974936075781415e+02  2.9999999999999994e+02  2.9981018078104290e+02  3.0000000000000000e+02  2.9988947673395722e+02  3.0000000000000000e+02  3.0000000000000000e+02  3.0000000000000000e+02  2.9952931270732137e+02  3.0000000000000000e+02  2.9953667810979147e+02  3.0000000000000000e+02  2.9954557363792020e+02  3.0000000000000000e+02  2.9955620387311950e+02  3.0000000000000000e+02  2.9956882898720136e+02  3.0000000000000000e+02  2.9958378134691588e+02  3.0000000000000000e+02  2.9960148946628993e+02  3.0000000000000000e+02  2.9962251347152591e+02  3.0000000000000000e+02  2.9964759949516417e+02  3.0000000000000000e+02  2.9967776719351639e+02  3.0000000000000000e+02  2.9971446007867797e+02  3.0000000000000000e+02  2.9975982755800646e+02  2.9999999999999994e+02  2.9981731755194500e+02  3.0000000000000000e+02  2.9989309968212564e+02  3.0000000000000000e+02  3.0000000000000000e+02  3.0000000000000000e+02  2.9957180355586678e+02  3.0000000000000000e+02  2.9956534394262792e+02  3.0000000000000000e+02  2.9957961677240110e+02  3.0000000000000000e+02  2.9958897096030540e+02  3.0000000000000000e+02  2.9960010607284966e+02  3.0000000000000000e+02  2.9961333121231377e+02  3.0000000000000000e+02  2.9962904881072376e+02  3.0000000000000000e+02  2.9964779084171636e+02  3.0000000000000000e+02  2.9967027488251068e+02  3.0000000000000000e+02  2.9969749481653747e+02  3.0000000000000000e+02  2.9973087662974694e+02  3.0000000000000000e+02  2.9977256886645409e+02  2.9999999999999994e+02  2.9982604642926555e+02  3.0000000000000000e+02  2.9989754504622090e+02  3.0000000000000000e+02  3.0000000000000000e+02  3.0000000000000000e+02  2.9961294123828822e+02  3.0000000000000000e+02  2.9961959049833735e+02  3.0000000000000000e+02  2.9962756567956365e+02  3.0000000000000000e+02  2.9963708090117433e+02  3.0000000000000000e+02  2.9964841445182196e+02  3.0000000000000000e+02  2.9966193257243003e+02  3.0000000000000000e+02  2.9967812567980832e+02  3.0000000000000000e+02  2.9969766539054444e+02  3.0000000000000000e+02  2.9972149811827376e+02  3.0000000000000000e+02  2.9975100732520673e+02  3.0000000000000000e+02  2.9978831628434654e+02  2.9999999999999994e+02  2.9983691215234995e+02  3.0000000000000000e+02  2.9990310739874724e+02  3.0000000000000000e+02  3.0000000000000000e+02  3.0000000000000000e+02  2.9966689698798598e+02  3.0000000000000000e+02  2.9967339861759388e+02  3.0000000000000000e+02  2.9968117260713205e+02  3.0000000000000000e+02  2.9969045779172404e+02  3.0000000000000000e+02  2.9970157204937755e+02  3.0000000000000000e+02  2.9971494705565146e+02  3.0000000000000000e+02  2.9973118433703115e+02  3.0000000000000000e+02  2.9975114961933730e+02  3.0000000000000000e+02  2.9977614020104750e+02  3.0000000000000000e+02  2.9980820235289463e+02  2.9999999999999994e+02  2.9985078789173343e+02  3.0000000000000000e+02  2.9991027428949712e+02  3.0000000000000000e+02  3.0000000000000000e+02  3.0000000000000000e+02  2.9972854077151464e+02  3.0000000000000000e+02  2.9973446686379737e+02  3.0000000000000000e+02  2.9974156278955121e+02  3.0000000000000000e+02  2.9975008448245410e+02  3.0000000000000000e+02  2.9976038445797650e+02  3.0000000000000000e+02  2.9977296310273118e+02  3.0000000000000000e+02  2.9978855812141893e+02  3.0000000000000000e+02  2.9980830961449885e+02  3.0000000000000000e+02  2.9983408575306544e+02  2.9999999999999994e+02  2.9986917801114447e+02  3.0000000000000000e+02  2.9991993046972061e+02  3.0000000000000000e+02  3.0000000000000000e+02  2.9999999999999994e+02  2.9980029283674520e+02  2.9999999999999994e+02  2.9979629953969231e+02  2.9999999999999994e+02  2.9980508457626968e+02  2.9999999999999994e+02  2.9981085518004033e+02  2.9999999999999994e+02  2.9981785632766031e+02  2.9999999999999994e+02  2.9982645158032994e+02  2.9999999999999994e+02  2.9983719023442711e+02  2.9999999999999994e+02  2.9985095111068853e+02  2.9999999999999994e+02  2.9986924559838860e