<?xml version="1.0"?>
<VTKFile type="UnstructuredGrid"  version="0.1"  >
<UnstructuredGrid>
<Piece  NumberOfPoints="7447" NumberOfCells="37513">
<Points>
<DataArray  type="Float64"  NumberOfComponents="3"  format="ascii">0.125 0.225 0  0.125 0.25 0  0.15 0.25 0  0.15 0.25 0.025  0.15 0.275 0  0.15 0.275 0.025  0.125 0.275 0  0.175 0.275 0  0.175 0.275 0.025  0.15 0.3 0  0.15 0.3 0.025  0.125 0.3 0  0.175 0.3 0  0.175 0.3 0.025  0.2 0.3 0  0.2 0.3 0.025  0.1 0.3 0  0.125 0.325 0  0.125 0.325 0.025  0.125 0.3 0.025  0.1 0.325 0  0.15 0.325 0  0.15 0.325 0.025  0.175 0.325 0  0.175 0.325 0.025  0.2 0.325 0  0.2 0.325 0.025  0.225 0.325 0  0.225 0.325 0.025  0.125 0.35 0  0.125 0.35 0.025  0.1 0.35 0  0.15 0.35 0  0.15 0.35 0.025  0.175 0.35 0  0.175 0.35 0.025  0.2 0.35 0  0.2 0.35 0.025  0.225 0.35 0  0.225 0.35 0.025  0.25 0.35 0  0.25 0.35 0.025  0.125 0.375 0  0.125 0.375 0.025  0.1 0.375 0  0.15 0.375 0  0.15 0.375 0.025  0.175 0.375 0  0.175 0.375 0.025  0.2 0.375 0  0.2 0.375 0.025  0.225 0.375 0  0.225 0.375 0.025  0.25 0.375 0  0.25 0.375 0.025  0.275 0.375 0  0.275 0.375 0.025  0.125 0.4 0  0.125 0.4 0.025  0.1 0.4 0  0.1 0.4 0.025  0.15 0.4 0  0.15 0.4 0.025  0.175 0.4 0  0.175 0.4 0.025  0.2 0.4 0  0.2 0.4 0.025  0.225 0.4 0  0.225 0.4 0.025  0.25 0.4 0  0.25 0.4 0.025  0.275 0.4 0  0.275 0.4 0.025  0.3 0.375 0  0.3 0.4 0  0.3 0.4 0.025  0.325 0.4 0  0.325 0.4 0.025  0.075 0.4 0  0.1 0.425 0  0.1 0.425 0.025  0.075 0.425 0  0.125 0.425 0  0.125 0.425 0.025  0.15 0.425 0  0.15 0.425 0.025  0.175 0.425 0  0.175 0.425 0.025  0.2 0.425 0  0.2 0.425 0.025  0.225 0.425 0  0.225 0.425 0.025  0.25 0.425 0  0.25 0.425 0.025  0.275 0.425 0  0.275 0.425 0.025  0.3 0.425 0  0.3 0.425 0.025  0.325 0.425 0  0.325 0.425 0.025  0.35 0.425 0  0.35 0.425 0.025  0.1 0.45 0  0.1 0.45 0.025  0.075 0.45 0  0.125 0.45 0  0.125 0.45 0.025  0.15 0.45 0  0.15 0.45 0.025  0.175 0.45 0  0.175 0.45 0.025  0.2 0.45 0  0.2 0.45 0.025  0.225 0.45 0  0.225 0.45 0.025  0.25 0.45 0  0.25 0.45 0.025  0.275 0.45 0  0.275 0.45 0.025  0.3 0.45 0  0.3 0.45 0.025  0.325 0.45 0  0.325 0.45 0.025  0.35 0.45 0  0.35 0.45 0.025  0.375 0.45 0  0.375 0.45 0.025  0.1 0.475 0  0.1 0.475 0.025  0.075 0.475 0  0.125 0.475 0  0.125 0.475 0.025  0.15 0.475 0  0.15 0.475 0.025  0.175 0.475 0  0.175 0.475 0.025  0.2 0.475 0  0.2 0.475 0.025  0.225 0.475 0  0.225 0.475 0.025  0.25 0.475 0  0.25 0.475 0.025  0.275 0.475 0  0.275 0.475 0.025  0.3 0.475 0  0.3 0.475 0.025  0.325 0.475 0  0.325 0.475 0.025  0.35 0.475 0  0.35 0.475 0.025  0.375 0.475 0  0.375 0.475 0.025  0.4 0.475 0  0.4 0.475 0.025  0.1 0.5 0  0.1 0.5 0.025  0.075 0.5 0  0.125 0.5 0  0.125 0.5 0.025  0.15 0.5 0  0.15 0.5 0.025  0.175 0.5 0  0.175 0.5 0.025  0.2 0.5 0  0.2 0.5 0.025  0.225 0.5 0  0.225 0.5 0.025  0.25 0.5 0  0.25 0.5 0.025  0.275 0.5 0  0.275 0.5 0.025  0.3 0.5 0  0.3 0.5 0.025  0.325 0.5 0  0.325 0.5 0.025  0.35 0.5 0  0.35 0.5 0.025  0.375 0.5 0  0.375 0.5 0.025  0.4 0.5 0  0.4 0.5 0.025  0.1 0.525 0  0.1 0.525 0.025  0.075 0.525 0  0.125 0.525 0  0.125 0.525 0.025  0.15 0.525 0  0.15 0.525 0.025  0.175 0.525 0  0.175 0.525 0.025  0.2 0.525 0  0.2 0.525 0.025  0.225 0.525 0  0.225 0.525 0.025  0.25 0.525 0  0.25 0.525 0.025  0.275 0.525 0  0.275 0.525 0.025  0.3 0.525 0  0.3 0.525 0.025  0.325 0.525 0  0.325 0.525 0.025  0.35 0.525 0  0.35 0.525 0.025  0.375 0.525 0  0.375 0.525 0.025  0.4 0.525 0  0.4 0.525 0.025  0.425 0.525 0  0.425 0.525 0.025  0.1 0.55 0  0.1 0.55 0.025  0.125 0.55 0  0.125 0.55 0.025  0.15 0.55 0  0.15 0.55 0.025  0.175 0.55 0  0.175 0.55 0.025  0.2 0.55 0  0.2 0.55 0.025  0.225 0.55 0  0.225 0.55 0.025  0.25 0.55 0  0.25 0.55 0.025  0.275 0.55 0  0.275 0.55 0.025  0.3 0.55 0  0.3 0.55 0.025  0.325 0.55 0  0.325 0.55 0.025  0.35 0.55 0  0.35 0.55 0.025  0.375 0.55 0  0.375 0.55 0.025  0.4 0.55 0  0.4 0.55 0.025  0.425 0.55 0  0.425 0.55 0.025  0.125 0.575 0  0.125 0.575 0.025  0.1 0.575 0  0.1 0.575 0.025  0.15 0.575 0  0.15 0.575 0.025  0.175 0.575 0  0.175 0.575 0.025  0.2 0.575 0  0.2 0.575 0.025  0.225 0.575 0  0.225 0.575 0.025  0.25 0.575 0  0.25 0.575 0.025  0.275 0.575 0  0.275 0.575 0.025  0.3 0.575 0  0.3 0.575 0.025  0.325 0.575 0  0.325 0.575 0.025  0.35 0.575 0  0.35 0.575 0.025  0.375 0.575 0  0.375 0.575 0.025  0.4 0.575 0  0.4 0.575 0.025  0.425 0.575 0  0.425 0.575 0.025  0.45 0.575 0  0.45 0.575 0.025  0.125 0.6 0  0.125 0.6 0.025  0.15 0.6 0  0.15 0.6 0.025  0.175 0.6 0  0.175 0.6 0.025  0.2 0.6 0  0.2 0.6 0.025  0.225 0.6 0  0.225 0.6 0.025  0.25 0.6 0  0.25 0.6 0.025  0.275 0.6 0  0.275 0.6 0.025  0.3 0.6 0  0.3 0.6 0.025  0.325 0.6 0  0.325 0.6 0.025  0.35 0.6 0  0.35 0.6 0.025  0.375 0.6 0  0.375 0.6 0.025  0.4 0.6 0  0.4 0.6 0.025  0.425 0.6 0  0.425 0.6 0.025  0.45 0.6 0  0.45 0.6 0.025  0.475 0.6 0  0.475 0.6 0.025  0.15 0.625 0  0.15 0.625 0.025  0.125 0.625 0  0.125 0.625 0.025  0.175 0.625 0  0.175 0.625 0.025  0.2 0.625 0  0.2 0.625 0.025  0.225 0.625 0  0.225 0.625 0.025  0.25 0.625 0  0.25 0.625 0.025  0.275 0.625 0  0.275 0.625 0.025  0.3 0.625 0  0.3 0.625 0.025  0.325 0.625 0  0.325 0.625 0.025  0.35 0.625 0  0.35 0.625 0.025  0.375 0.625 0  0.375 0.625 0.025  0.4 0.625 0  0.4 0.625 0.025  0.425 0.625 0  0.425 0.625 0.025  0.45 0.625 0  0.45 0.625 0.025  0.475 0.625 0  0.475 0.625 0.025  0.5 0.625 0  0.5 0.625 0.025  0.15 0.65 0  0.15 0.65 0.025  0.125 0.65 0  0.175 0.65 0  0.175 0.65 0.025  0.2 0.65 0  0.2 0.65 0.025  0.225 0.65 0  0.225 0.65 0.025  0.25 0.65 0  0.25 0.65 0.025  0.275 0.65 0  0.275 0.65 0.025  0.3 0.65 0  0.3 0.65 0.025  0.325 0.65 0  0.325 0.65 0.025  0.35 0.65 0  0.35 0.65 0.025  0.375 0.65 0  0.375 0.65 0.025  0.4 0.65 0  0.4 0.65 0.025  0.425 0.65 0  0.425 0.65 0.025  0.45 0.65 0  0.45 0.65 0.025  0.475 0.65 0  0.475 0.65 0.025  0.5 0.65 0  0.5 0.65 0.025  0.15 0.675 0  0.15 0.675 0.025  0.125 0.675 0  0.175 0.675 0  0.175 0.675 0.025  0.2 0.675 0  0.2 0.675 0.025  0.225 0.675 0  0.225 0.675 0.025  0.25 0.675 0  0.25 0.675 0.025  0.275 0.675 0  0.275 0.675 0.025  0.3 0.675 0  0.3 0.675 0.025  0.325 0.675 0  0.325 0.675 0.025  0.35 0.675 0  0.35 0.675 0.025  0.375 0.675 0  0.375 0.675 0.025  0.4 0.675 0  0.4 0.675 0.025  0.425 0.675 0  0.425 0.675 0.025  0.45 0.675 0  0.45 0.675 0.025  0.475 0.675 0  0.475 0.675 0.025  0.5 0.675 0  0.5 0.675 0.025  0.15 0.7 0  0.15 0.7 0.025  0.175 0.7 0  0.175 0.7 0.025  0.2 0.7 0  0.2 0.7 0.025  0.225 0.7 0  0.225 0.7 0.025  0.25 0.7 0  0.25 0.7 0.025  0.275 0.7 0  0.275 0.7 0.025  0.3 0.7 0  0.3 0.7 0.025  0.325 0.7 0  0.325 0.7 0.025  0.35 0.7 0  0.35 0.7 0.025  0.375 0.7 0  0.375 0.7 0.025  0.4 0.7 0  0.4 0.7 0.025  0.425 0.7 0  0.425 0.7 0.025  0.45 0.7 0  0.45 0.7 0.025  0.475 0.7 0  0.475 0.7 0.025  0.5 0.7 0  0.5 0.7 0.025  0.525 0.675 0  0.525 0.7 0  0.525 0.7 0.025  0.55 0.7 0  0.55 0.7 0.025  0.175 0.725 0  0.175 0.725 0.025  0.15 0.725 0  0.15 0.725 0.025  0.2 0.725 0  0.2 0.725 0.025  0.225 0.725 0  0.225 0.725 0.025  0.25 0.725 0  0.25 0.725 0.025  0.275 0.725 0  0.275 0.725 0.025  0.3 0.725 0  0.3 0.725 0.025  0.325 0.725 0  0.325 0.725 0.025  0.35 0.725 0  0.35 0.725 0.025  0.375 0.725 0  0.375 0.725 0.025  0.4 0.725 0  0.4 0.725 0.025  0.425 0.725 0  0.425 0.725 0.025  0.45 0.725 0  0.45 0.725 0.025  0.475 0.725 0  0.475 0.725 0.025  0.5 0.725 0  0.5 0.725 0.025  0.525 0.725 0  0.525 0.725 0.025  0.55 0.725 0  0.55 0.725 0.025  0.575 0.725 0  0.575 0.725 0.025  0.175 0.75 0  0.175 0.75 0.025  0.15 0.75 0  0.2 0.75 0  0.2 0.75 0.025  0.225 0.75 0  0.225 0.75 0.025  0.25 0.75 0  0.25 0.75 0.025  0.275 0.75 0  0.275 0.75 0.025  0.3 0.75 0  0.3 0.75 0.025  0.325 0.75 0  0.325 0.75 0.025  0.35 0.75 0  0.35 0.75 0.025  0.375 0.75 0  0.375 0.75 0.025  0.4 0.75 0  0.4 0.75 0.025  0.425 0.75 0  0.425 0.75 0.025  0.45 0.75 0  0.45 0.75 0.025  0.475 0.75 0  0.475 0.75 0.025  0.5 0.75 0  0.5 0.75 0.025  0.525 0.75 0  0.525 0.75 0.025  0.55 0.75 0  0.55 0.75 0.025  0.575 0.75 0  0.575 0.75 0.025  0.6 0.75 0.025  0.175 0.775 0  0.175 0.775 0.025  0.15 0.775 0  0.2 0.775 0  0.2 0.775 0.025  0.225 0.775 0  0.225 0.775 0.025  0.25 0.775 0  0.25 0.775 0.025  0.275 0.775 0  0.275 0.775 0.025  0.3 0.775 0  0.3 0.775 0.025  0.325 0.775 0  0.325 0.775 0.025  0.35 0.775 0  0.35 0.775 0.025  0.375 0.775 0  0.375 0.775 0.025  0.4 0.775 0  0.4 0.775 0.025  0.425 0.775 0  0.425 0.775 0.025  0.45 0.775 0  0.45 0.775 0.025  0.475 0.775 0  0.475 0.775 0.025  0.5 0.775 0  0.5 0.775 0.025  0.525 0.775 0  0.525 0.775 0.025  0.55 0.775 0  0.55 0.775 0.025  0.575 0.775 0  0.575 0.775 0.025  0.6 0.775 0.025  0.6 0.775 0  0.175 0.8 0  0.175 0.8 0.025  0.15 0.8 0  0.2 0.8 0  0.2 0.8 0.025  0.225 0.8 0  0.225 0.8 0.025  0.25 0.8 0  0.25 0.8 0.025  0.275 0.8 0  0.275 0.8 0.025  0.3 0.8 0  0.3 0.8 0.025  0.325 0.8 0  0.325 0.8 0.025  0.35 0.8 0  0.35 0.8 0.025  0.375 0.8 0  0.375 0.8 0.025  0.4 0.8 0  0.4 0.8 0.025  0.425 0.8 0  0.425 0.8 0.025  0.45 0.8 0  0.45 0.8 0.025  0.475 0.8 0  0.475 0.8 0.025  0.5 0.8 0  0.5 0.8 0.025  0.525 0.8 0  0.525 0.8 0.025  0.55 0.8 0  0.55 0.8 0.025  0.575 0.8 0  0.575 0.8 0.025  0.6 0.8 0  0.6 0.8 0.025  0.625 0.8 0  0.625 0.8 0.025  0.175 0.825 0  0.175 0.825 0.025  0.15 0.825 0  0.2 0.825 0  0.2 0.825 0.025  0.225 0.825 0  0.225 0.825 0.025  0.25 0.825 0  0.25 0.825 0.025  0.275 0.825 0  0.275 0.825 0.025  0.3 0.825 0  0.3 0.825 0.025  0.325 0.825 0  0.325 0.825 0.025  0.35 0.825 0  0.35 0.825 0.025  0.375 0.825 0  0.375 0.825 0.025  0.4 0.825 0  0.4 0.825 0.025  0.425 0.825 0  0.425 0.825 0.025  0.45 0.825 0  0.45 0.825 0.025  0.475 0.825 0  0.475 0.825 0.025  0.5 0.825 0  0.5 0.825 0.025  0.525 0.825 0  0.525 0.825 0.025  0.55 0.825 0  0.55 0.825 0.025  0.575 0.825 0  0.575 0.825 0.025  0.6 0.825 0  0.6 0.825 0.025  0.625 0.825 0  0.625 0.825 0.025  0.65 0.825 0  0.65 0.825 0.025  0.175 0.85 0  0.175 0.85 0.025  0.2 0.85 0  0.2 0.85 0.025  0.225 0.85 0  0.225 0.85 0.025  0.25 0.85 0  0.25 0.85 0.025  0.275 0.85 0  0.275 0.85 0.025  0.3 0.85 0  0.3 0.85 0.025  0.325 0.85 0  0.325 0.85 0.025  0.35 0.85 0  0.35 0.85 0.025  0.375 0.85 0  0.375 0.85 
[...]
<PointData  Scalars="f_11"> 
<DataArray  type="Float64"  Name="f_11"  format="ascii">3.0000000000000000e+02  3.0000000000000000e+02  3.0000000000000000e+02  2.9959930161393544e+02  3.0000000000000000e+02  2.9958797235853370e+02  3.0000000000000000e+02  3.0000000000000000e+02  2.9955538038559331e+02  3.0000000000000000e+02  2.9957843602658352e+02  3.0000000000000000e+02  3.0000000000000000e+02  2.9954456293324620e+02  3.0000000000000000e+02  2.9951563132591895e+02  3.0000000000000000e+02  3.0000000000000000e+02  2.9961147236978485e+02  2.9961828073230515e+02  3.0000000000000000e+02  3.0000000000000000e+02  2.9957045590939344e+02  3.0000000000000000e+02  2.9953549558809067e+02  3.0000000000000000e+02  2.9950556515250616e+02  3.0000000000000000e+02  2.9947989076892020e+02  3.0000000000000000e+02  2.9960584115921461e+02  3.0000000000000000e+02  3.0000000000000000e+02  2.9956384723604555e+02  3.0000000000000000e+02  2.9952797655725908e+02  3.0000000000000000e+02  2.9949720660556630e+02  3.0000000000000000e+02  2.9947076561650846e+02  3.0000000000000000e+02  2.9944805381651236e+02  3.0000000000000000e+02  2.9960126008173449e+02  3.0000000000000000e+02  3.0000000000000000e+02  2.9955846571622334e+02  3.0000000000000000e+02  2.9952184732657594e+02  3.0000000000000000e+02  2.9949038574609602e+02  3.0000000000000000e+02  2.9946331129313063e+02  3.0000000000000000e+02  2.9944002520125088e+02  3.0000000000000000e+02  2.9942005208337184e+02  3.0000000000000000e+02  2.9959763109581036e+02  3.0000000000000000e+02  2.9964868354714116e+02  3.0000000000000000e+02  2.9955419944406111e+02  3.0000000000000000e+02  2.9951698436884590e+02  3.0000000000000000e+02  2.9948496953294182e+02  3.0000000000000000e+02  2.9945738714088685e+02  3.0000000000000000e+02  2.9943363949154326e+02  3.0000000000000000e+02  2.9941325158878215e+02  3.0000000000000000e+02  3.0000000000000000e+02  2.9939584085221793e+02  3.0000000000000000e+02  2.9938109686664086e+02  3.0000000000000000e+02  3.0000000000000000e+02  2.9964644433866204e+02  3.0000000000000000e+02  3.0000000000000000e+02  2.9959487976934980e+02  3.0000000000000000e+02  2.9955096314330910e+02  3.0000000000000000e+02  2.9951329319338720e+02  3.0000000000000000e+02  2.9948085582010060e+02  3.0000000000000000e+02  2.9945288478834851e+02  3.0000000000000000e+02  2.9942878335630729e+02  3.0000000000000000e+02  2.9940807698290320e+02  3.0000000000000000e+02  2.9939038314373175e+02  3.0000000000000000e+02  2.9937539118503202e+02  3.0000000000000000e+02  2.9936284839541997e+02  3.0000000000000000e+02  2.9964487553913006e+02  3.0000000000000000e+02  3.0000000000000000e+02  2.9959295151416524e+02  3.0000000000000000e+02  2.9954869409463305e+02  3.0000000000000000e+02  2.9951070410061516e+02  3.0000000000000000e+02  2.9947796904423444e+02  3.0000000000000000e+02  2.9944972384723036e+02  3.0000000000000000e+02  2.9942537251538698e+02  3.0000000000000000e+02  2.9940444090666369e+02  3.0000000000000000e+02  2.9938654661504194e+02  3.0000000000000000e+02  2.9937137889356228e+02  3.0000000000000000e+02  2.9935868479183534e+02  3.0000000000000000e+02  2.9934825932637938e+02  3.0000000000000000e+02  2.9964394620460490e+02  3.0000000000000000e+02  3.0000000000000000e+02  2.9959180899630934e+02  3.0000000000000000e+02  2.9954734931513917e+02  3.0000000000000000e+02  2.9950916922264304e+02  3.0000000000000000e+02  2.9947625720116054e+02  3.0000000000000000e+02  2.9944784888103652e+02  3.0000000000000000e+02  2.9942334873912063e+02  3.0000000000000000e+02  2.9940228290014210e+02  3.0000000000000000e+02  2.9938426905856829e+02  3.0000000000000000e+02  2.9936899644088874e+02  3.0000000000000000e+02  2.9935621198098340e+02  3.0000000000000000e+02  2.9934571052513240e+02  3.0000000000000000e+02  2.9933732776517235e+02  3.0000000000000000e+02  2.9964363831598234e+02  3.0000000000000000e+02  3.0000000000000000e+02  2.9959143044945830e+02  3.0000000000000000e+02  2.9954690371191623e+02  3.0000000000000000e+02  2.9950866057627985e+02  3.0000000000000000e+02  2.9947568984784181e+02  3.0000000000000000e+02  2.9944722739440948e+02  3.0000000000000000e+02  2.9942267785243166e+02  3.0000000000000000e+02  2.9940156743903282e+02  3.0000000000000000e+02  2.9938351388614581e+02  3.0000000000000000e+02  2.9936820641554880e+02  3.0000000000000000e+02  2.9935539192659240e+02  3.0000000000000000e+02  2.9934486521258196e+02  3.0000000000000000e+02  2.9933646190394575e+02  3.0000000000000000e+02  2.9964394595739390e+02  3.0000000000000000e+02  3.0000000000000000e+02  2.9959180872341028e+02  3.0000000000000000e+02  2.9954734903679241e+02  3.0000000000000000e+02  2.9950916895722185e+02  3.0000000000000000e+02  2.9947625696419584e+02  3.0000000000000000e+02  2.9944784868479763e+02  3.0000000000000000e+02  2.9942334859259051e+02  3.0000000000000000e+02  2.9940228280926351e+02  3.0000000000000000e+02  2.9938426902666015e+02  3.0000000000000000e+02  2.9936899646915640e+02  3.0000000000000000e+02  2.9935621206906166e+02  3.0000000000000000e+02  2.9934571067162170e+02  3.0000000000000000e+02  2.9933732796814070e+02  3.0000000000000000e+02  2.9933093535386121e+02  3.0000000000000000e+02  2.9964487505110731e+02  3.0000000000000000e+02  2.9959295097657684e+02  3.0000000000000000e+02  2.9954869354795989e+02  3.0000000000000000e+02  2.9951070358147450e+02  3.0000000000000000e+02  2.9947796858344805e+02  3.0000000000000000e+02  2.9944972346901818e+02  3.0000000000000000e+02  2.9942537223735337e+02  3.0000000000000000e+02  2.9940444074032212e+02  3.0000000000000000e+02  2.9938654656667393e+02  3.0000000000000000e+02  2.9937137896525167e+02  3.0000000000000000e+02  2.9935868498256474e+02  3.0000000000000000e+02  2.9934825963310266e+02  3.0000000000000000e+02  2.9933993880201314e+02  3.0000000000000000e+02  2.9933359407732007e+02  3.0000000000000000e+02  2.9959487898359396e+02  3.0000000000000000e+02  2.9964644362269377e+02  3.0000000000000000e+02  2.9955096234847144e+02  3.0000000000000000e+02  2.9951329244405076e+02  3.0000000000000000e+02  2.9948085516187740e+02  3.0000000000000000e+02  2.9945288425675471e+02  3.0000000000000000e+02  2.9942878297683581e+02  3.0000000000000000e+02  2.9940807677189213e+02  3.0000000000000000e+02  2.9939038310971426e+02  3.0000000000000000e+02  2.9937539133032737e+02  3.0000000000000000e+02  2.9936284871779532e+02  3.0000000000000000e+02  2.9935255061091772e+02  3.0000000000000000e+02  2.9934433325408531e+02  3.0000000000000000e+02  2.9933806858619698e+02  3.0000000000000000e+02  2.9933366045902716e+02  3.0000000000000000e+02  2.9959763008692931e+02  3.0000000000000000e+02  2.9955419843160672e+02  3.0000000000000000e+02  2.9951698342489567e+02  3.0000000000000000e+02  2.9948496871709398e+02  3.0000000000000000e+02  2.9945738649893161e+02  3.0000000000000000e+02  2.9943363905573915e+02  3.0000000000000000e+02  2.9941325137916749e+02  3.0000000000000000e+02  2.9939584087852290e+02  3.0000000000000000e+02  2.9938109713047834e+02  3.0000000000000000e+02  2.9936876785316957e+02  3.0000000000000000e+02  2.9935864892977304e+02  3.0000000000000000e+02  2.9935057718473291e+02  3.0000000000000000e+02  2.9934442511110359e+02  3.0000000000000000e+02  2.9934009704011692e+02  3.0000000000000000e+02  2.9933752642488253e+02  3.0000000000000000e+02  2.9955846452745322e+02  3.0000000000000000e+02  2.9960125888361642e+02  3.0000000000000000e+02  2.9952184623599101e+02  3.0000000000000000e+02  2.9949038482610763e+02  3.0000000000000000e+02  2.9946331059836427e+02  3.0000000000000000e+02  2.9944002476919297e+02  3.0000000000000000e+02  2.9942005193625732e+02  3.0000000000000000e+02  2.9940300963640232e+02  3.0000000000000000e+02  2.9938858794723200e+02  3.0000000000000000e+02  2.9937653532611836e+02  3.0000000000000000e+02  2.9936664851594128e+02  3.0000000000000000e+02  2.9935876522231041e+02  3.0000000000000000e+02  2.9935275876059984e+02  3.0000000000000000e+02  2.9934853416279987e+02  3.0000000000000000e+02  2.9934602541459054e+02  3.0000000000000000e+02  2.9934519361015595e+02  3.0000000000000000e+02  2.9956384592349929e+02  3.0000000000000000e+02  3.0000000000000000e+02  2.9952797538082916e+02  3.0000000000000000e+02  2.9949720564884359e+02  3.0000000000000000e+02  2.9947076494103749e+02  3.0000000000000000e+02  2.9944805346302985e+02  3.0000000000000000e+02  2.9942859566168181e+02  3.0000000000000000e+02  2.9941200956604030e+02  3.0000000000000000e+02  2.9939798618660012e+02  3.0000000000000000e+02  2.9938627517537640e+02  3.0000000000000000e+02  2.9937667457975465e+02  3.0000000000000000e+02  2.9936902339518332e+02  3.0000000000000000e+02  2.9936319611338013e+02  3.0000000000000000e+02  2.9935909875347124e+02  3.0000000000000000e+02  2.9935666604367276e+02  3.0000000000000000e+02  2.9935585953851762e+02  3.0000000000000000e+02  2.9957045453744166e+02  3.0000000000000000e+02  3.0000000000000000e+02  2.9953549439985795e+02  3.0000000000000000e+02  2.9950556424055031e+02  3.0000000000000000e+02  2.9947989019924330e+02  3.0000000000000000e+02  2.9945787177780329e+02  3.0000000000000000e+02  2.9943903377494564e+02  3.0000000000000000e+02  2.9942299532657273e+02  3.0000000000000000e+02  2.9940944903601735e+02  3.0000000000000000e+02  2.9939814640468188e+02  3.0000000000000000e+02  2.9938888739746727e+02  3.0000000000000000e+02  2.9938151284558876e+02  3.0000000000000000e+02  2.9937589887906489e+02  3.0000000000000000e+02  2.9937195287135410e+02  3.0000000000000000e+02  2.9936961055907068e+02  3.0000000000000000e+02  2.9936883411786857e+02  3.0000000000000000e+02  2.9957843467208738e+02  3.0000000000000000e+02  2.9954456182087739e+02  3.0000000000000000e+02  2.9951563055427391e+02  3.0000000000000000e+02  2.9949086528836756e+02  3.0000000000000000e+02  2.9946966550060586e+02  3.0000000000000000e+02  2.9945155721369275e+02  3.0000000000000000e+02  2.9943616162739085e+02  3.0000000000000000e+02  2.9942317389991518e+02  3.0000000000000000e+02  2.9941234829352300e+02  3.0000000000000000e+02  2.9940348751499431e+02  3.0000000000000000e+02  2.9939643494607793e+02  3.0000000000000000e+02  2.9939106894746573e+02  3.0000000000000000e+02  2.9938729871039050e+02  3.0000000000000000e+02  2.9938506131155839e+02  3.0000000000000000e+02  2.9938431974681134e+02  3.0000000000000000e+02  3.0000000000000000e+02  2.9938506180269223e+02  3.0000000000000000e+02  2.9938729968840880e+02  3.0000000000000000e+02  2.9955537945051651e+02  3.0000000000000000e+02  2.9958797111148328e+02  3.0000000000000000e+02  2.9952761973920741e+02  3.0000000000000000e+02  2.9950391555328537e+02  3.0000000000000000e+02  2.9948366757529726e+02  3.0000000000000000e+02  2.9946640444257230e+02  3.0000000000000000e+02  2.9945175083601248e+02  3.0000000000000000e+02  2.9943940582217942e+02  3.0000000000000000e+02  2.9942912765769569e+02  3.0000000000000000e+02  2.9942072287330069e+02  3.0000000000000000e+02  2.9941403831691417e+02  3.0000000000000000e+02  2.9940895532422041e+02  3.0000000000000000e+02  2.9940538547790072e+02  3.0000000000000000e+02  2.9940326760086344e+02  3.0000000000000000e+02  2.9940256575110323e+02  3.0000000000000000e+02  2.9940326807204855e+02  3.0000000000000000e+02  2.9940538641780176e+02  3.0000000000000000e+02  2.9940895672749548e+02  3.0000000000000000e+02  2.9956820398116861e+02  3.0000000000000000e+02  3.0000000000000000e+02  2.9954180365908383e+02  3.0000000000000000e+02  2.9951932406384060e+02  3.0000000000000000e+02  2.9950016911567127e+02  3.0000000000000000e+02  2.9948387217353900e+02  3.0000000000000000e+02  2.9947006342359106e+02  3.0000000000000000e+02  2.9945844768947859e+02  3.0000000000000000e+02  2.9944878884862260e+02  3.0000000000000000e+02  2.9944089864225441e+02  3.0000000000000000e+02  2.9943462853077671e+02  3.0000000000000000e+02  2.9942986373948435e+02  3.0000000000000000e+02  2.9942651893727270e+02  3.0000000000000000e+02  2.9942453517984478e+02  3.0000000000000000e+02  2.9942387787521949e+02  3.0000000000000000e+02  2.9942453561891853e+02  3.0000000000000000e+02  2.9942651981456470e+02  3.0000000000000000e+02  2.9942986505293254e+02  2.9943463027637875e+02  3.0000000000000000e+02  2.9958336343712205e+02  3.0000000000000000e+02  3.0000000000000000e+02  2.9955852707350948e+02  3.0000000000000000e+02  2.9953744739753614e+02  3.0000000000000000e+02  2.9951953475365048e+02  3.0000000000000000e+02  2.9950433030007235e+02  3.0000000000000000e+02  2.9949147253340470e+02  3.0000000000000000e+02  2.9948067449220349e+02  3.0000000000000000e+02  2.9947170776491032e+02  3.0000000000000000e+02  2.9946439103616876e+02  3.0000000000000000e+02  2.9945858177917950e+02  3.0000000000000000e+02  2.9945417020572302e+02  3.0000000000000000e+02  2.9945107489220743e+02  3.0000000000000000e+02  2.9944923969626097e+02  3.0000000000000000e+02  2.9944863171026992e+02  3.0000000000000000e+02  2.9944924009202077e+02  3.0000000000000000e+02  2.9945107568422765e+02  3.0000000000000000e+02  2.9945417139472471e+02  2.9945858336551186e+02  3.0000000000000000e+02  3.0000000000000000e+02  2.9960128091788124e+02  3.0000000000000000e+02  3.0000000000000000e+02  2.9957823081463471e+02  3.0000000000000000e+02  2.9955873815209469e+02  3.0000000000000000e+02  2.9954222450830656e+02  3.0000000000000000e+02  2.9952824319916607e+02  3.0000000000000000e+02  2.9951644481094598e+02  3.0000000000000000e+02  2.9950655377652771e+02  3.0000000000000000e+02  2.9949835201004890e+02  3.0000000000000000e+02  2.9949166724785647e+02  3.0000000000000000e+02  2.9948636464109791e+02  3.0000000000000000e+02  2.9948234066852149e+02  3.0000000000000000e+02  2.9947951875910371e+02  3.0000000000000000e+02  2.9947784622036892e+02  3.0000000000000000e+02  2.9947729220706617e+02  3.0000000000000000e+02  2.9947784656335580e+02  3.0000000000000000e+02  2.9947951944659457e+02  3.0000000000000000e+02  2.9948234170335195e+02  3.0000000000000000e+02  2.9948636602699332e+02  3.0000000000000000e+02  2.9949166898870737e+02  3.0000000000000000e+02  2.9962250977577986e+02  3.0000000000000000e+02  3.0000000000000000e+02  2.9960148591032765e+02  3.0000000000000000e+02  2.9958377802294001e+02  3.0000000000000000e+02  2.9956882594769348e+02  3.0000000000000000e+02  2.9955620114469866e+02  3.0000000000000000e+02  2.9954557123099141e+02  3.0000000000000000e+02  2.9953667602507636e+02  3.0000000000000000e+02  2.9952931094019959e+02  3.0000000000000000e+02  2.9952331525265595e+02  3.0000000000000000e+02  2.9951856371217190e+02  3.0000000000000000e+02  2.9951496051435163e+02  3.0000000000000000e+02  2.9951243499551902e+02  3.0000000000000000e+02  2.9951093862866765e+02  3.0000000000000000e+02  2.9951044304543791e+02  3.0000000000000000e+02  2.9951093891199059e+02  3.0000000000000000e+02  2.9951243556430063e+02  3.0000000000000000e+02  2.9951496137274461e+02  3.0000000000000000e+02  2.9951856486608551e+02  3.0000000000000000e+02  2.9952331670929686e+02  3.0000000000000000e+02  2.9952931270732137e+02  3.0000000000000000e+02  2.9964778759296968e+02  3.0000000000000000e+02  2.9962904576320318e+02  3.0000000000000000e+02  2.9961332842124085e+02  3.0000000000000000e+02  2.9960010356287103e+02  3.0000000000000000e+02  2.9958896873794100e+02  3.0000000000000000e+02  2.9957961483399578e+02  3.0000000000000000e+02  2.9957180189257218e+02  3.0000000000000000e+02  2.9956534254347895e+02  3.0000000000000000e+02  2.9956009043705711e+02  3.0000000000000000e+02  2.9955593205959394e+02  3.0000000000000000e+02  2.9955278090810691e+02  3.0000000000000000e+02  2.9955057336268163e+02  3.0000000000000000e+02  2.9954926582471313e+02  3.0000000000000000e+02  2.9954883284167238e+02  3.0000000000000000e+02  2.9954926604484723e+02  3.0000000000000000e+02  2.9955057380528496e+02  3.0000000000000000e+02  2.9955278157780060e+02  3.0000000000000000e+02  2.9955593296317124e+02  3.0000000000000000e+02  2.9956009158326464e+02  3.0000000000000000e+02  2.9956534394262792e+02  3.0000000000000000e+02  2.9966193016882016e+02  3.0000000000000000e+02  3.0000000000000000e+02  2.9964841229543816e+02  3.0000000000000000e+02  2.9963707899416170e+02  3.0000000000000000e+02  2.9962756401403954e+02  3.0000000000000000e+02  2.9961958906187505e+02  3.0000000000000000e+02  2.9961294001703561e+02  3.0000000000000000e+02  2.9960745089636043e+02  3.0000000000000000e+02  2.9960299281635156e+02  3.0000000000000000e+02  2.9959946628039751e+02  3.0000000000000000e+02  2.9959679574702250e+02  3.0000000000000000e+02  2.9959492581425582e+02  3.0000000000000000e+02  2.9959381859223544e+02  3.0000000000000000e+02  2.9959345199025836e+02  3.0000000000000000e+02  2.9959381874970319e+02  3.0000000000000000e+02  2.9959492613133716e+02  3.0000000000000000e+02  2.9959679622800900e+02  3.0000000000000000e+02  2.9959946693171929e+02  3.0000000000000000e+02  2.9960299364653991e+02  3.0000000000000000e+02  2.9960745191594117e+02  3.0000000000000000e+02  2.9961294123828822e+02  3.0000000000000000e+02  2.9970157037119628e+02  3.0000000000000000e+02  2.9969045631702181e+02  3.0000000000000000e+02  2.9968117132451346e+02  3.0000000000000000e+02  2.9967339751245254e+02  3.0000000000000000e+02  2.9966689604532291e+02  3.0000000000000000e+02  2.9966148480668107e+02  3.0000000000000000e+02  2.9965702363018141e+02  3.0000000000000000e+02  2.9965340429537508e+02  3.0000000000000000e+02  2.9965054363003287e+02  3.0000000000000000e+02  2.9964837870526105e+02  3.0000000000000000e+02  2.9964686348961675e+02  3.0000000000000000e+02  2.9964596656071069e+02  3.0000000000000000e+02  2.9964566962063475e+02  3.0000000000000000e+02  2.9964596666053365e+02  3.0000000000000000e+02  2.9964686369091868e+02  3.0000000000000000e+02  2.9964837901137838e+02  3.0000000000000000e+02  2.9965054404603001e+02  3.0000000000000000e+02  2.9965340482810723e+02  3.0000000000000000e+02  2.9965702428835493e+02  3.0000000000000000e+02  2.9966148560088720e+02  3.0000000000000000e+02  2.9966689698798598e+02  3.0000000000000000e+02  2.9974156196590326e+02  3.0000000000000000e+02  3.0000000000000000e+02  2.9973446615900036e+02  3.0000000000000000e+02  2.9972854017217702e+02  3.0000000000000000e+02  2.9972359379691164e+02  3.0000000000000000e+02  2.9971948321179980e+02  3.0000000000000000e+02  2.9971609844587766e+02  3.0000000000000000e+02  2.9971335502305641e+02  3.0000000000000000e+02  2.9971118827539459e+02  3.0000000000000000e+02  2.9970954942233658e+02  3.0000000000000000e+02  2.9970840286238132e+02  3.0000000000000000e+02  2.9970772433205059e+02  3.0000000000000000e+02  2.9970749971680777e+02  3.0000000000000000e+02  2.9970772438383767e+02  3.0000000000000000e+02  2.9970840296696525e+02  3.0000000000000000e+02  2.9970954958176219e+02  3.0000000000000000e+02  2.9971118849279662e+02  3.0000000000000000e+02  2.9971335530273944e+02  3.0000000000000000e+02  2.9971609879342259e+02  3.0000000000000000e+02  2.9971948363419216e+02  3.0000000000000000e+02  2.9972359430268034e+02  3.0000000000000000e+02  2.9972854077151464e+02  2.9999999999999994e+02  2.9980508427727995e+02  2.9999999999999994e+02  2.9999999999999994e+02  2.9980029258483211e+02  2.9999999999999994e+02  2.9979629932813612e+02  2.9999999999999994e+02  2.9979297166712024e+02  2.9999999999999994e+02  2.9979020985952354e+02  2.9999999999999994e+02  2.9978793804362681e+02  2.9999999999999994e+02  2.9978609818184236e+02  2.9999999999999994e+02  2.9978464598388945e+02  2.9999999999999994e+02  2.9978354811981285e+02  2.9999999999999994e+02  2.9978278030735180e+02  2.9999999999999994e+02  2.9978232601813897e+02  2.9999999999999994e+02  2.9978217564498215e+02  2.9999999999999994e+02  2.9978232603565385e+02  2.9999999999999994e+02  2.9978278034277304e+02  2.9999999999999994e+02  2.9978354817393705e+02  2.9999999999999994e+02  2.9978464605794642e+02  2.9999999999999994e+02  2.9978609827753968e+02  2.9999999999999994e+02  2.9978793816321229e+02  2.9999999999999994e+02  2.9979021000586943e+02  2.9999999999999994e+02  2.9979297184383216e+02  2.9999999999999994e+02  2.9979629953969231e+02  3.0000000000000000e+02  2.9988703736811783e+02  3.0000000000000000e+02  2.9988462746620456e+02  3.0000000000000000e