<?xml version="1.0"?>
<VTKFile type="UnstructuredGrid"  version="0.1"  >
<UnstructuredGrid>
<Piece  NumberOfPoints="7753" NumberOfCells="38952">
<Points>
<DataArray  type="Float64"  NumberOfComponents="3"  format="ascii">0 0.15 0  0 0.175 0  0.025 0.175 0  0.025 0.175 0.025  0 0.15 0.025  0 0.175 0.025  0.025 0.2 0  0.025 0.2 0.025  0 0.2 0  0 0.2 0.025  0.05 0.175 0  0.05 0.2 0  0.05 0.2 0.025  0.075 0.2 0  0.075 0.2 0.025  0.025 0.225 0  0.025 0.225 0.025  0 0.225 0  0 0.225 0.025  0.05 0.225 0  0.05 0.225 0.025  0.075 0.225 0  0.075 0.225 0.025  0.1 0.2 0  0.1 0.225 0  0.1 0.225 0.025  0.125 0.225 0  0.125 0.225 0.025  0.025 0.25 0  0.025 0.25 0.025  0 0.25 0  0 0.25 0.025  0.05 0.25 0  0.05 0.25 0.025  0.075 0.25 0  0.075 0.25 0.025  0.1 0.25 0  0.1 0.25 0.025  0.125 0.25 0  0.125 0.25 0.025  0.15 0.25 0.025  0.025 0.275 0  0.025 0.275 0.025  0 0.275 0  0 0.275 0.025  0.05 0.275 0  0.05 0.275 0.025  0.075 0.275 0  0.075 0.275 0.025  0.1 0.275 0  0.1 0.275 0.025  0.125 0.275 0  0.125 0.275 0.025  0.15 0.275 0.025  0.025 0.3 0  0.025 0.3 0.025  0 0.3 0  0 0.3 0.025  0.05 0.3 0  0.05 0.3 0.025  0.075 0.3 0  0.075 0.3 0.025  0.1 0.3 0  0.1 0.3 0.025  0.125 0.3 0  0.125 0.3 0.025  0.15 0.3 0.025  0.025 0.325 0  0.025 0.325 0.025  0 0.325 0  0 0.325 0.025  0.05 0.325 0  0.05 0.325 0.025  0.075 0.325 0  0.075 0.325 0.025  0.1 0.325 0  0.1 0.325 0.025  0.125 0.325 0.025  0.025 0.35 0  0.025 0.35 0.025  0 0.35 0  0 0.35 0.025  0.05 0.35 0  0.05 0.35 0.025  0.075 0.35 0  0.075 0.35 0.025  0.1 0.35 0  0.1 0.35 0.025  0.125 0.35 0.025  0.025 0.375 0  0.025 0.375 0.025  0 0.375 0  0 0.375 0.025  0.05 0.375 0  0.05 0.375 0.025  0.075 0.375 0  0.075 0.375 0.025  0.1 0.375 0  0.1 0.375 0.025  0.125 0.375 0.025  0.025 0.4 0  0.025 0.4 0.025  0 0.4 0  0 0.4 0.025  0.05 0.4 0  0.05 0.4 0.025  0.075 0.4 0  0.075 0.4 0.025  0.1 0.4 0  0.1 0.4 0.025  0.125 0.4 0.025  0.025 0.425 0  0.025 0.425 0.025  0 0.425 0  0 0.425 0.025  0.05 0.425 0  0.05 0.425 0.025  0.075 0.425 0  0.075 0.425 0.025  0.1 0.425 0.025  0.025 0.45 0  0.025 0.45 0.025  0 0.45 0  0 0.45 0.025  0.05 0.45 0  0.05 0.45 0.025  0.075 0.45 0  0.075 0.45 0.025  0.1 0.45 0.025  0.025 0.475 0  0.025 0.475 0.025  0 0.475 0  0 0.475 0.025  0.05 0.475 0  0.05 0.475 0.025  0.075 0.475 0  0.075 0.475 0.025  0.1 0.475 0.025  0.025 0.5 0  0.025 0.5 0.025  0 0.5 0  0 0.5 0.025  0.05 0.5 0  0.05 0.5 0.025  0.075 0.5 0  0.075 0.5 0.025  0.1 0.5 0.025  0.025 0.525 0  0.025 0.525 0.025  0 0.525 0  0 0.525 0.025  0.05 0.525 0  0.05 0.525 0.025  0.075 0.525 0  0.075 0.525 0.025  0.1 0.525 0.025  0.025 0.55 0  0.025 0.55 0.025  0 0.55 0  0 0.55 0.025  0.05 0.55 0  0.05 0.55 0.025  0.075 0.55 0  0.075 0.55 0.025  0.1 0.55 0.025  0.1 0.55 0  0.025 0.575 0  0.025 0.575 0.025  0 0.575 0  0 0.575 0.025  0.05 0.575 0  0.05 0.575 0.025  0.075 0.575 0  0.075 0.575 0.025  0.1 0.575 0  0.1 0.575 0.025  0.025 0.6 0  0.025 0.6 0.025  0 0.6 0  0 0.6 0.025  0.05 0.6 0  0.05 0.6 0.025  0.075 0.6 0  0.075 0.6 0.025  0.1 0.6 0  0.1 0.6 0.025  0.125 0.6 0  0.125 0.6 0.025  0.025 0.625 0  0.025 0.625 0.025  0 0.625 0  0 0.625 0.025  0.05 0.625 0  0.05 0.625 0.025  0.075 0.625 0  0.075 0.625 0.025  0.1 0.625 0  0.1 0.625 0.025  0.125 0.625 0  0.125 0.625 0.025  0.025 0.65 0  0.025 0.65 0.025  0 0.65 0  0 0.65 0.025  0.05 0.65 0  0.05 0.65 0.025  0.075 0.65 0  0.075 0.65 0.025  0.1 0.65 0  0.1 0.65 0.025  0.125 0.65 0  0.125 0.65 0.025  0.15 0.65 0.025  0.025 0.675 0  0.025 0.675 0.025  0 0.675 0  0 0.675 0.025  0.05 0.675 0  0.05 0.675 0.025  0.075 0.675 0  0.075 0.675 0.025  0.1 0.675 0  0.1 0.675 0.025  0.125 0.675 0  0.125 0.675 0.025  0.15 0.675 0.025  0.025 0.7 0  0.025 0.7 0.025  0 0.7 0  0 0.7 0.025  0.05 0.7 0  0.05 0.7 0.025  0.075 0.7 0  0.075 0.7 0.025  0.1 0.7 0  0.1 0.7 0.025  0.125 0.7 0  0.125 0.7 0.025  0.15 0.7 0.025  0.15 0.7 0  0.025 0.725 0  0.025 0.725 0.025  0 0.725 0  0 0.725 0.025  0.05 0.725 0  0.05 0.725 0.025  0.075 0.725 0  0.075 0.725 0.025  0.1 0.725 0  0.1 0.725 0.025  0.125 0.725 0  0.125 0.725 0.025  0.15 0.725 0  0.15 0.725 0.025  0.025 0.75 0  0.025 0.75 0.025  0 0.75 0  0 0.75 0.025  0.05 0.75 0  0.05 0.75 0.025  0.075 0.75 0  0.075 0.75 0.025  0.1 0.75 0  0.1 0.75 0.025  0.125 0.75 0  0.125 0.75 0.025  0.15 0.75 0  0.15 0.75 0.025  0.175 0.75 0.025  0.025 0.775 0  0.025 0.775 0.025  0 0.775 0  0 0.775 0.025  0.05 0.775 0  0.05 0.775 0.025  0.075 0.775 0  0.075 0.775 0.025  0.1 0.775 0  0.1 0.775 0.025  0.125 0.775 0  0.125 0.775 0.025  0.15 0.775 0  0.15 0.775 0.025  0.175 0.775 0.025  0.025 0.8 0  0.025 0.8 0.025  0 0.8 0  0 0.8 0.025  0.05 0.8 0  0.05 0.8 0.025  0.075 0.8 0  0.075 0.8 0.025  0.1 0.8 0  0.1 0.8 0.025  0.125 0.8 0  0.125 0.8 0.025  0.15 0.8 0  0.15 0.8 0.025  0.175 0.8 0.025  0.025 0.825 0  0.025 0.825 0.025  0 0.825 0  0 0.825 0.025  0.05 0.825 0  0.05 0.825 0.025  0.075 0.825 0  0.075 0.825 0.025  0.1 0.825 0  0.1 0.825 0.025  0.125 0.825 0  0.125 0.825 0.025  0.15 0.825 0  0.15 0.825 0.025  0.175 0.825 0.025  0.025 0.85 0  0.025 0.85 0.025  0 0.85 0  0 0.85 0.025  0.05 0.85 0  0.05 0.85 0.025  0.075 0.85 0  0.075 0.85 0.025  0.1 0.85 0  0.1 0.85 0.025  0.125 0.85 0  0.125 0.85 0.025  0.15 0.85 0  0.15 0.85 0.025  0.175 0.85 0.025  0.175 0.85 0  0.025 0.875 0  0.025 0.875 0.025  0 0.875 0  0 0.875 0.025  0.05 0.875 0  0.05 0.875 0.025  0.075 0.875 0  0.075 0.875 0.025  0.1 0.875 0  0.1 0.875 0.025  0.125 0.875 0  0.125 0.875 0.025  0.15 0.875 0  0.15 0.875 0.025  0.175 0.875 0  0.175 0.875 0.025  0.2 0.875 0.025  0.025 0.9 0  0.025 0.9 0.025  0 0.9 0  0 0.9 0.025  0.05 0.9 0  0.05 0.9 0.025  0.075 0.9 0  0.075 0.9 0.025  0.1 0.9 0  0.1 0.9 0.025  0.125 0.9 0  0.125 0.9 0.025  0.15 0.9 0  0.15 0.9 0.025  0.175 0.9 0  0.175 0.9 0.025  0.2 0.9 0.025  0.2 0.9 0  0.025 0.925 0  0.025 0.925 0.025  0 0.925 0  0 0.925 0.025  0.05 0.925 0  0.05 0.925 0.025  0.075 0.925 0  0.075 0.925 0.025  0.1 0.925 0  0.1 0.925 0.025  0.125 0.925 0  0.125 0.925 0.025  0.15 0.925 0  0.15 0.925 0.025  0.175 0.925 0  0.175 0.925 0.025  0.2 0.925 0  0.2 0.925 0.025  0.225 0.925 0.025  0.025 0.95 0  0.025 0.95 0.025  0 0.95 0  0 0.95 0.025  0.05 0.95 0  0.05 0.95 0.025  0.075 0.95 0  0.075 0.95 0.025  0.1 0.95 0  0.1 0.95 0.025  0.125 0.95 0  0.125 0.95 0.025  0.15 0.95 0  0.15 0.95 0.025  0.175 0.95 0  0.175 0.95 0.025  0.2 0.95 0  0.2 0.95 0.025  0.225 0.95 0.025  0.025 0.975 0  0.025 0.975 0.025  0 0.975 0  0 0.975 0.025  0.05 0.975 0  0.05 0.975 0.025  0.075 0.975 0  0.075 0.975 0.025  0.1 0.975 0  0.1 0.975 0.025  0.125 0.975 0  0.125 0.975 0.025  0.15 0.975 0  0.15 0.975 0.025  0.175 0.975 0  0.175 0.975 0.025  0.2 0.975 0  0.2 0.975 0.025  0.225 0.975 0.025  0.225 0.975 0  0.025 1 0  0.025 1 0.025  0 1 0  0 1 0.025  0.05 1 0  0.05 1 0.025  0.075 1 0  0.075 1 0.025  0.1 1 0  0.1 1 0.025  0.125 1 0  0.125 1 0.025  0.15 1 0  0.15 1 0.025  0.175 1 0  0.175 1 0.025  0.2 1 0  0.2 1 0.025  0.225 1 0  0.225 1 0.025  0.025 0.175 0.05  0 0.15 0.05  0 0.175 0.05  0.025 0.2 0.05  0 0.2 0.05  0.05 0.2 0.05  0.025 0.225 0.05  0 0.225 0.05  0.05 0.225 0.05  0.075 0.225 0.05  0.075 0.2 0.05  0.1 0.225 0.05  0.025 0.25 0.05  0 0.25 0.05  0.05 0.25 0.05  0.075 0.25 0.05  0.1 0.25 0.05  0.125 0.25 0.05  0.125 0.225 0.05  0.025 0.275 0.05  0 0.275 0.05  0.05 0.275 0.05  0.075 0.275 0.05  0.1 0.275 0.05  0.125 0.275 0.05  0.15 0.275 0.05  0.175 0.275 0.05  0.025 0.3 0.05  0 0.3 0.05  0.05 0.3 0.05  0.075 0.3 0.05  0.1 0.3 0.05  0.125 0.3 0.05  0.15 0.3 0.05  0.175 0.3 0.05  0.025 0.325 0.05  0 0.325 0.05  0.05 0.325 0.05  0.075 0.325 0.05  0.1 0.325 0.05  0.125 0.325 0.05  0.15 0.325 0.05  0.025 0.35 0.05  0 0.35 0.05  0.05 0.35 0.05  0.075 0.35 0.05  0.1 0.35 0.05  0.125 0.35 0.05  0.15 0.35 0.05  0.025 0.375 0.05  0 0.375 0.05  0.05 0.375 0.05  0.075 0.375 0.05  0.1 0.375 0.05  0.125 0.375 0.05  0.15 0.375 0.05  0.025 0.4 0.05  0 0.4 0.05  0.05 0.4 0.05  0.075 0.4 0.05  0.1 0.4 0.05  0.125 0.4 0.05  0.15 0.4 0.05  0.025 0.425 0.05  0 0.425 0.05  0.05 0.425 0.05  0.075 0.425 0.05  0.1 0.425 0.05  0.125 0.425 0.05  0.025 0.45 0.05  0 0.45 0.05  0.05 0.45 0.05  0.075 0.45 0.05  0.1 0.45 0.05  0.125 0.45 0.05  0.025 0.475 0.05  0 0.475 0.05  0.05 0.475 0.05  0.075 0.475 0.05  0.1 0.475 0.05  0.125 0.475 0.05  0.025 0.5 0.05  0 0.5 0.05  0.05 0.5 0.05  0.075 0.5 0.05  0.1 0.5 0.05  0.025 0.525 0.05  0 0.525 0.05  0.05 0.525 0.05  0.075 0.525 0.05  0.1 0.525 0.05  0.025 0.55 0.05  0 0.55 0.05  0.05 0.55 0.05  0.075 0.55 0.05  0.1 0.55 0.05  0.125 0.55 0.05  0.025 0.575 0.05  0 0.575 0.05  0.05 0.575 0.05  0.075 0.575 0.05  0.1 0.575 0.05  0.125 0.575 0.05  0.025 0.6 0.05  0 0.6 0.05  0.05 0.6 0.05  0.075 0.6 0.05  0.1 0.6 0.05  0.125 0.6 0.05  0.025 0.625 0.05  0 0.625 0.05  0.05 0.625 0.05  0.075 0.625 0.05  0.1 0.625 0.05  0.125 0.625 0.05  0.15 0.625 0.05  0.025 0.65 0.05  0 0.65 0.05  0.05 0.65 0.05  0.075 0.65 0.05  0.1 0.65 0.05  0.125 0.65 0.05  0.15 0.65 0.05  0.025 0.675 0.05  0 0.675 0.05  0.05 0.675 0.05  0.075 0.675 0.05  0.1 0.675 0.05  0.125 0.675 0.05  0.15 0.675 0.05  0.025 0.7 0.05  0 0.7 0.05  0.05 0.7 0.05  0.075 0.7 0.05  0.1 0.7 0.05  0.125 0.7 0.05  0.15 0.7 0.05  0.175 0.7 0.05  0.025 0.725 0.05  0 0.725 0.05  0.05 0.725 0.05  0.075 0.725 0.05  0.1 0.725 0.05  0.125 0.725 0.05  0.15 0.725 0.05  0.175 0.725 0.05  0.025 0.75 0.05  0 0.75 0.05  0.05 0.75 0.05  0.075 0.75 0.05  0.1 0.75 0.05  0.125 0.75 0.05  0.15 0.75 0.05  0.175 0.75 0.05  0.025 0.775 0.05  0 0.775 0.05  0.05 0.775 0.05  0.075 0.775 0.05  0.1 0.775 0.05  0.125 0.775 0.05  0.15 0.775 0.05  0.175 0.775 0.05  0.025 0.8 0.05  0 0.8 0.05  0.05 0.8 0.05  0.075 0.8 0.05  0.1 0.8 0.05  0.125 0.8 0.05  0.15 0.8 0.05  0.175 0.8 0.05  0.2 0.8 0.05  0.025 0.825 0.05  0 0.825 0.05  0.05 0.825 0.05  0.075 0.825 0.05  0.1 0.825 0.05  0.125 0.825 0.05  0.15 0.825 0.05  0.175 0.825 0.05  0.2 0.825 0.05  0.025 0.85 0.05  0 0.85 0.05  0.05 0.85 0.05  0.075 0.85 0.05  0.1 0.85 0.05  0.125 0.85 0.05  0.15 0.85 0.05  0.175 0.85 0.05  0.2 0.85 0.05  0.025 0.875 0.05  0 0.875 0.05  0.05 0.875 0.05  0.075 0.875 0.05  0.1 0.875 0.
[...]
<PointData  Scalars="f_11"> 
<DataArray  type="Float64"  Name="f_11"  format="ascii">3.0000000000000000e+02  3.0000000000000000e+02  3.0000000000000000e+02  2.9989310093106371e+02  3.0000000000000000e+02  3.0000000000000000e+02  3.0000000000000000e+02  2.9988947848147001e+02  3.0000000000000000e+02  3.0000000000000000e+02  2.9999999999999994e+02  2.9999999999999994e+02  2.9981018163072190e+02  3.0000000000000000e+02  2.9974936029800961e+02  3.0000000000000000e+02  2.9988648773990508e+02  3.0000000000000000e+02  3.0000000000000000e+02  2.9999999999999994e+02  2.9980427772618975e+02  3.0000000000000000e+02  2.9974067323139855e+02  3.0000000000000000e+02  3.0000000000000000e+02  2.9968959786071684e+02  3.0000000000000000e+02  2.9964765868666507e+02  3.0000000000000000e+02  2.9988399866989835e+02  3.0000000000000000e+02  3.0000000000000000e+02  2.9999999999999994e+02  2.9979935732239795e+02  3.0000000000000000e+02  2.9973341674712600e+02  3.0000000000000000e+02  2.9968013154737332e+02  3.0000000000000000e+02  2.9963613098019243e+02  2.9959930161393544e+02  3.0000000000000000e+02  2.9988191903975604e+02  3.0000000000000000e+02  3.0000000000000000e+02  2.9999999999999994e+02  2.9979524237314615e+02  3.0000000000000000e+02  2.9972733814562156e+02  3.0000000000000000e+02  2.9967218479089343e+02  3.0000000000000000e+02  2.9962642987607830e+02  2.9958797235853370e+02  3.0000000000000000e+02  2.9988018146182173e+02  3.0000000000000000e+02  3.0000000000000000e+02  2.9999999999999994e+02  2.9979180194202837e+02  3.0000000000000000e+02  2.9972224982526444e+02  3.0000000000000000e+02  2.9966552193759253e+02  3.0000000000000000e+02  2.9961828073230515e+02  2.9957843602658352e+02  3.0000000000000000e+02  2.9987873562284551e+02  3.0000000000000000e+02  3.0000000000000000e+02  2.9999999999999994e+02  2.9978893780494752e+02  3.0000000000000000e+02  2.9971801005503272e+02  3.0000000000000000e+02  2.9965996343149328e+02  2.9961147236978485e+02  3.0000000000000000e+02  2.9987754341372704e+02  3.0000000000000000e+02  3.0000000000000000e+02  2.9999999999999994e+02  2.9978657530205754e+02  3.0000000000000000e+02  2.9971451052764547e+02  3.0000000000000000e+02  2.9965537115161993e+02  2.9960584115921461e+02  3.0000000000000000e+02  2.9987657576719988e+02  3.0000000000000000e+02  3.0000000000000000e+02  2.9999999999999994e+02  2.9978465733764580e+02  3.0000000000000000e+02  2.9971166807743623e+02  3.0000000000000000e+02  2.9965163849451966e+02  2.9960126008173449e+02  3.0000000000000000e+02  2.9987581054929643e+02  3.0000000000000000e+02  3.0000000000000000e+02  2.9999999999999994e+02  2.9978314034883221e+02  3.0000000000000000e+02  2.9970941905332916e+02  3.0000000000000000e+02  2.9964868354714116e+02  2.9959763109581036e+02  3.0000000000000000e+02  2.9987523112899174e+02  3.0000000000000000e+02  3.0000000000000000e+02  2.9999999999999994e+02  2.9978199155494940e+02  3.0000000000000000e+02  2.9970771544597829e+02  2.9964644433866204e+02  3.0000000000000000e+02  2.9987482540268820e+02  3.0000000000000000e+02  3.0000000000000000e+02  2.9999999999999994e+02  2.9978118707329259e+02  3.0000000000000000e+02  2.9970652221697151e+02  2.9964487553913006e+02  3.0000000000000000e+02  2.9987458513757190e+02  3.0000000000000000e+02  3.0000000000000000e+02  2.9999999999999994e+02  2.9978071064659116e+02  3.0000000000000000e+02  2.9970581548601047e+02  2.9964394620460490e+02  3.0000000000000000e+02  2.9987450555053215e+02  3.0000000000000000e+02  3.0000000000000000e+02  2.9999999999999994e+02  2.9978055282506995e+02  3.0000000000000000e+02  2.9970558136148276e+02  2.9964363831598234e+02  3.0000000000000000e+02  2.9987458507299465e+02  3.0000000000000000e+02  3.0000000000000000e+02  2.9999999999999994e+02  2.9978071050894869e+02  3.0000000000000000e+02  2.9970581528483507e+02  2.9964394595739390e+02  3.0000000000000000e+02  2.9987482527528459e+02  3.0000000000000000e+02  3.0000000000000000e+02  2.9999999999999994e+02  2.9978118680119366e+02  3.0000000000000000e+02  2.9970652181932661e+02  2.9964487505110731e+02  3.0000000000000000e+02  3.0000000000000000e+02  2.9987523094225457e+02  3.0000000000000000e+02  3.0000000000000000e+02  2.9999999999999994e+02  2.9978199115476650e+02  3.0000000000000000e+02  2.9970771486130496e+02  3.0000000000000000e+02  2.9964644362269377e+02  3.0000000000000000e+02  2.9987581030844296e+02  3.0000000000000000e+02  3.0000000000000000e+02  2.9999999999999994e+02  2.9978313983012725e+02  3.0000000000000000e+02  2.9970941829586764e+02  3.0000000000000000e+02  2.9964868262270204e+02  3.0000000000000000e+02  2.9959763008692931e+02  3.0000000000000000e+02  2.9987657547914216e+02  3.0000000000000000e+02  3.0000000000000000e+02  2.9999999999999994e+02  2.9978465671317616e+02  3.0000000000000000e+02  2.9971166716632990e+02  3.0000000000000000e+02  2.9965163738791853e+02  3.0000000000000000e+02  2.9960125888361642e+02  3.0000000000000000e+02  2.9987754308703023e+02  3.0000000000000000e+02  3.0000000000000000e+02  2.9999999999999994e+02  2.9978657458778935e+02  3.0000000000000000e+02  2.9971450948709810e+02  3.0000000000000000e+02  2.9965536989632744e+02  3.0000000000000000e+02  2.9960583981504544e+02  2.9956384592349929e+02  3.0000000000000000e+02  2.9987873526766941e+02  3.0000000000000000e+02  3.0000000000000000e+02  2.9999999999999994e+02  2.9978893702008435e+02  3.0000000000000000e+02  2.9971800891454461e+02  3.0000000000000000e+02  2.9965996206859904e+02  3.0000000000000000e+02  2.9961147093264367e+02  2.9957045453744166e+02  3.0000000000000000e+02  2.9988018108984062e+02  3.0000000000000000e+02  3.0000000000000000e+02  2.9999999999999994e+02  2.9979180110906748e+02  3.0000000000000000e+02  2.9972224861997512e+02  3.0000000000000000e+02  2.9966552051642503e+02  3.0000000000000000e+02  2.9961827926591047e+02  2.9957843467208738e+02  3.0000000000000000e+02  3.0000000000000000e+02  2.9988191866405657e+02  3.0000000000000000e+02  3.0000000000000000e+02  2.9999999999999994e+02  2.9979524151798944e+02  3.0000000000000000e+02  2.9972733691681827e+02  3.0000000000000000e+02  2.9967218336984854e+02  3.0000000000000000e+02  2.9962642845567620e+02  3.0000000000000000e+02  2.9958797111148328e+02  3.0000000000000000e+02  2.9988399830484832e+02  3.0000000000000000e+02  3.0000000000000000e+02  2.9999999999999994e+02  2.9979935647456347e+02  3.0000000000000000e+02  2.9973341554298793e+02  3.0000000000000000e+02  2.9968013019498511e+02  3.0000000000000000e+02  2.9963612969352232e+02  3.0000000000000000e+02  2.9959930057787562e+02  2.9956820398116861e+02  3.0000000000000000e+02  2.9988648740099694e+02  3.0000000000000000e+02  3.0000000000000000e+02  2.9999999999999994e+02  2.9980427691920124e+02  3.0000000000000000e+02  2.9974067210807959e+02  3.0000000000000000e+02  2.9968959665696849e+02  3.0000000000000000e+02  2.9964765763480909e+02  3.0000000000000000e+02  2.9961272815751715e+02  2.9958336343712205e+02  3.0000000000000000e+02  2.9988947818515470e+02  3.0000000000000000e+02  3.0000000000000000e+02  2.9999999999999994e+02  2.9981018090281913e+02  3.0000000000000000e+02  2.9974935932116568e+02  3.0000000000000000e+02  2.9970089671566222e+02  3.0000000000000000e+02  2.9966137403007826e+02  3.0000000000000000e+02  2.9962865130367203e+02  2.9960128091788124e+02  3.0000000000000000e+02  2.9989310069463437e+02  3.0000000000000000e+02  3.0000000000000000e+02  2.9999999999999994e+02  2.9981731715995102e+02  3.0000000000000000e+02  2.9975982571501589e+02  3.0000000000000000e+02  2.9971445721816247e+02  3.0000000000000000e+02  2.9967776375269659e+02  3.0000000000000000e+02  2.9964759581047895e+02  2.9962250977577986e+02  3.0000000000000000e+02  2.9989754563142918e+02  3.0000000000000000e+02  3.0000000000000000e+02  2.9999999999999994e+02  2.9982604560343043e+02  3.0000000000000000e+02  2.9977256676784191e+02  3.0000000000000000e+02  2.9973087374124447e+02  3.0000000000000000e+02  2.9969749155522936e+02  3.0000000000000000e+02  2.9967027153715969e+02  2.9964778759296968e+02  3.0000000000000000e+02  3.0000000000000000e+02  2.9990310758511310e+02  3.0000000000000000e+02  3.0000000000000000e+02  2.9999999999999994e+02  2.9983691101615341e+02  3.0000000000000000e+02  2.9978831413220843e+02  3.0000000000000000e+02  2.9975100464602286e+02  3.0000000000000000e+02  2.9972149527094280e+02  3.0000000000000000e+02  2.9969766259299416e+02  3.0000000000000000e+02  2.9967812305063353e+02  2.9966193016882016e+02  3.0000000000000000e+02  2.9991027413789124e+02  3.0000000000000000e+02  3.0000000000000000e+02  2.9999999999999994e+02  2.9985078663233566e+02  3.0000000000000000e+02  2.9980820040583620e+02  3.0000000000000000e+02  2.9977613799464092e+02  3.0000000000000000e+02  2.9975114741358010e+02  3.0000000000000000e+02  2.9973118226368325e+02  3.0000000000000000e+02  2.9971494517139661e+02  2.9970157037119628e+02  3.0000000000000000e+02  3.0000000000000000e+02  2.9991993010326905e+02  3.0000000000000000e+02  3.0000000000000000e+02  2.9999999999999994e+02  2.9986917689751715e+02  3.0000000000000000e+02  2.9983408430695079e+02  3.0000000000000000e+02  2.9980830812457128e+02  3.0000000000000000e+02  2.9978855672371498e+02  3.0000000000000000e+02  2.9977296184756779e+02  3.0000000000000000e+02  2.9976038335547497e+02  3.0000000000000000e+02  2.9975008352581574e+02  2.9974156196590326e+02  3.0000000000000000e+02  2.9993388824842907e+02  3.0000000000000000e+02  3.0000000000000000e+02  2.9999999999999994e+02  2.9989491441164057e+02  2.9999999999999994e+02  2.9986924489694695e+02  2.9999999999999994e+02  2.9985095045666691e+02  2.9999999999999994e+02  2.9983718965993637e+02  2.9999999999999994e+02  2.9982645108761335e+02  2.9999999999999994e+02  2.9981785590912608e+02  2.9999999999999994e+02  2.9981085482592323e+02  2.9980508427727995e+02  3.0000000000000000e+02  2.9995647510993933e+02  3.0000000000000000e+02  3.0000000000000000e+02  3.0000000000000000e+02  2.9993391672341227e+02  3.0000000000000000e+02  2.9992000830592951e+02  3.0000000000000000e+02  2.9991041718600047e+02  3.0000000000000000e+02  2.9990332560233804e+02  3.0000000000000000e+02  2.9989784473034263e+02  3.0000000000000000e+02  2.9989348377554865e+02  3.0000000000000000e+02  2.9988994557570709e+02  2.9988703736811783e+02  3.0000000000000000e+02  3.0000000000000000e+02  2.9999999999999994e+02  3.0000000000000000e+02  3.0000000000000000e+02  3.0000000000000000e+02  3.0000000000000000e+02  3.0000000000000000e+02  3.0000000000000000e+02  3.0000000000000000e+02  3.0000000000000000e+02  3.0000000000000000e+02  3.0000000000000000e+02  3.0000000000000000e+02  3.0000000000000000e+02  3.0000000000000000e+02  3.0000000000000000e+02  3.0000000000000000e+02  3.0000000000000000e+02  3.0000000000000000e+02  3.0000000000000000e+02  2.9981723599006716e+02  2.9999999999999994e+02  2.9999999999999994e+02  2.9981009462490283e+02  2.9999999999999994e+02  2.9966360026478543e+02  2.9980418605974450e+02  2.9999999999999994e+02  2.9965192940930012e+02  2.9953029212898235e+02  2.9954747258403455e+02  2.9943107226003576e+02  2.9979926151997603e+02  2.9999999999999994e+02  2.9964218852822898e+02  2.9951592034514738e+02  2.9941231736205742e+02  2.9932606200987743e+02  2.9934890776099945e+02  2.9979514292243107e+02  2.9999999999999994e+02  2.9963403375829586e+02  2.9950386896852297e+02  2.9939655713155418e+02  2.9930681742406045e+02  2.9923103311094019e+02  2.9916661243328946e+02  2.9979169930013717e+02  2.9999999999999994e+02  2.9962721060094827e+02  2.9949377326487888e+02  2.9938333325843979e+02  2.9929063968503669e+02  2.9921209760786360e+02  2.9914512929769433e+02  2.9978883240338951e+02  2.9999999999999994e+02  2.9962152724589481e+02  2.9948535642320132e+02  2.9937229498171757e+02  2.9927711616014994e+02  2.9919624353385569e+02  2.9978646755084668e+02  2.9999999999999994e+02  2.9961683739020265e+02  2.9947840618911442e+02  2.9936317158352415e+02  2.9926592608475664e+02  2.9918310862342582e+02  2.9978454762887401e+02  2.9999999999999994e+02  2.9961302885560019e+02  2.9947275915869625e+02  2.9935575359244433e+02  2.9925681984625203e+02  2.9917240929227148e+02  2.9978302905987897e+02  2.9999999999999994e+02  2.9961001588242641e+02  2.9946829002566909e+02  2.9934987974361059e+02  2.9924960441446285e+02  2.9916392519749843e+02  2.9978187905143625e+02  2.9999999999999994e+02  2.9960773384112127e+02  2.9946490413756374e+02  2.9934542785630498e+02  2.9924413303445527e+02  2.9978107371185774e+02  2.9999999999999994e+02  2.9960613559346922e+02  2.9946253233963557e+02  2.9934230846302910e+02  2.9924029796348805e+02  2.9978059677753561e+02  2.9999999999999994e+02  2.9960518902707719e+02  2.9946112746363366e+02  2.9934046044371672e+02  2.9923802545931409e+02  2.9978043879491707e+02  2.9999999999999994e+02  2.9960487546690666e+02  2.9946066205743955e+02  2.9933984818999886e+02  2.9978059666295053e+02  2.9999999999999994e+02  2.9960518878544525e+02  2.9946112711029832e+02  2.9934046000829460e+02  2.9978107348581466e+02  2.9999999999999994e+02  2.9960613511610114e+02  2.9946253164177085e+02  2.9934230760415693e+02  2.9924029701460819e+02  2.9978187872017031e+02  2.9999999999999994e+02  2.9960773313980440e+02  2.9946490311282213e+02  2.9934542659802776e+02  2.9924413164951903e+02  2.9978302863269460e+02  2.9999999999999994e+02  2.9961001497483204e+02  2.9946828870063888e+02  2.9934987812225370e+02  2.9924960263995428e+02  2.9978454711808229e+02  2.9999999999999994e+02  2.9961302776527424e+02  2.9947275756904372e+02  2.9935575165693967e+02  2.9925681774486458e+02  2.9917240720265124e+02  2.9978646697167142e+02  2.9999999999999994e+02  2.9961683614655402e+02  2.9947840437979715e+02  2.9936316939587340e+02  2.9926592373601625e+02  2.9918310632526243e+02  2.9978883177383693e+02  2.9999999999999994e+02  2.9962152588419400e+02  2.9948535444877734e+02  2.9937229261761814e+02  2.9927711366119661e+02  2.9919624114417491e+02  2.9979169864081570e+02  2.9999999999999994e+02  2.9962720916234497e+02  2.9949377118994983e+02  2.9938333080810031e+02  2.9929063715153166e+02  2.9921209526519408e+02  2.9914512737604656e+02  2.9979514225630646e+02  2.9999999999999994e+02  2.9963403228988449e+02  2.9950386686836646e+02  2.9939655470071460e+02  2.9930681499112507e+02  2.9923103097563842e+02  2.9916661083968262e+02  2.9979926087204825e+02  2.9999999999999994e+02  2.9964218708320902e+02  2.9951591830660618e+02  2.9941231507318628e+02  2.9932605983283565e+02  2.9925351091572662e+02  2.9919206237051111e+02  2.9980418545662633e+02  2.9999999999999994e+02  2.9965192804731663e+02  2.9953029025167399e+02  2.9943107025353629e+02  2.9934890601539752e+02  2.9928012880976939e+02  2.9922212049488314e+02  2.9981009409429669e+02  2.9999999999999994e+02  2.9966359905258741e+02  2.9954747098187323e+02  2.9945342717978701e+02  2.9937605320767955e+02  2.9931165370116753e+02  2.9925760414522426e+02  2.9921197925033590e+02  2.9981723556017533e+02  2.9999999999999994e+02  2.9967767620619475e+02  2.9956812814057150e+02  2.9948020416081079e+02  2.9940843160954961e+02  2.9934909484770174e+02  2.9929957589059171e+02  2.9925797260692309e+02  2.9982596981975450e+02  2.9999999999999994e+02  2.9969483958438093e+02  2.9959319917522225e+02  2.9951252939262235e+02  2.9944730167254932e+02  2.9939379914813372e+02  2.9934943582079086e+02  2.9931235837834981e+02  2.9983684173323195e+02  2.9999999999999994e+02  2.9971609886303014e+02  2.9962404305812817e+02  2.9955200006565417e+02  2.9949441067213468e+02  2.9944760148672219e+02  2.9940906529640466e+02  2.9937703876136476e+02  2.9985072467254639e+02  2.9999999999999994e+02  2.9974302447050110e+02  2.9966270396490876e+02  2.9960094679864812e+02  2.9955224564109909e+02  2.9951306435579551e+02  2.9948105545046081e+02  2.9945460810109194e+02  2.9943258301499691e+02  2.9986912339104197e+02  2.9999999999999994e+02  2.9977819415245193e+02  2.9971238388423035e+02  2.9966288450257576e+02  2.9962445401417978e+02  2.9959387381381862e+02  2.9956908623210109e+02  2.9954872127576169e+02  2.9953183248767459e+02  2.9989487132336643e+02  2.9999999999999994e+02  2.9982608992429982e+02  2.9977830402897717e+02  2.9974329298322994e+02  2.9971656035091979e+02  2.9969551646169145e+02  2.9967858107733593e+02  2.9966473648637447e+02  2.9965329605413928e+02  2.9993388859701253e+02  3.0000000000000000e+02  2.9989491505375378e+02  2.9986924559838843e+02  2.9985095111068864e+02  2.9983719023442740e+02  2.9982645158033029e+02  2.9981785632766037e+02  2.9981085518004016e+02  2.9980508457626956e+02  3.0000000000000000e+02  3.0000000000000000e+02  2.9999999999999994e+02  2.9999999999999994e+02  2.9999999999999994e+02  2.9999999999999994e+02  2.9999999999999994e+02  2.9999999999999994e+02  2.9999999999999994e+02  2.9999999999999994e+02  2.9975959259084050e+02  3.0000000000000000e+02  3.0000000000000000e+02  2.9974911099282582e+02  3.0000000000000000e+02  2.9954724173299508e+02  2.9974041009146487e+02  3.0000000000000000e+02  2.9953004808818946e+02  2.9935764942477869e+02  2.9938297090456871e+02  2.9921480217912494e+02  2.9973314125583778e+02  3.0000000000000000e+02  2.9951566447176742e+02  2.9933641991010285e+02  2.9918708819130586e+02  2.9906156006399090e+02  2.9972705170050671e+02  3.0000000000000000e+02  2.9950360255354980e+02  2.9931858848629338e+02  2.9916376197694927e+02  2.9903306859979040e+02  2.9892201920217667e+02  2.9972195375307479e+02  3.0000000000000000e+02  2.9949349754673085e+02  2.9930363212631102e+02  2.9914416597361230e+02  2.9900908939366394e+02  2.9889394588855322e+02  2.9879536608442089e+02  2.9971770562273264e+02  3.0000000000000000e+02  2.9948507259639592e+02  2.9929115117165713e+02  2.9912779356911591e+02  2.9898902624004546e+02  2.9887042041493521e+02  2.9876862612695874e+02  2.9868105583848387e+02  2.9971419895134164e+02  3.0000000000000000e+02  2.9947811541071366e+02  2.9928083757536365e+02  2.9911425176931846e+02  2.9897241336374839e+02  2.9885091659913684e+02  2.9874642849504085e+02  2.9971135053021038e+02  3.0000000000000000e+02  2.9947246255376092e+02  2.9927245324204529e+02  2.9910323530192096e+02  2.9895888692086828e+02  2.9883502099526766e+02  2.9872831885421942e+02  2.9970909667244507e+02  3.0000000000000000e+02  2.9946798869228979e+02  2.9926581503078484e+02  2.9909450844381035e+02  2.9894816471703842e+02  2.9882241143246330e+02  2.9871394150157056e+02  2.9970738933971165e+02  3.0000000000000000e+02  2.9946459915173284e+02  2.9926078428207700e+02  2.9908789219486823e+02  2.9894003172873693e+02  2.9881284152245831e+02  2.9970619347119822e+02  3.0000000000000000e+02  2.9946222476007205e+02  2.9925725951470957e+02  2.9908325525945560e+02  2.9893432983011087e+02  2.9880612956685849e+02  2.9970548517063355e+02  3.0000000000000000e+02  2.9946081833660287e+02  2.9925517142730763e+02  2.9908050783484867e+02  2.9893095066757428e+02  2.9970525053675215e+02  3.0000000000000000e+02  2.9946035242157967e+02  2.9925447965465582e+02  2.9907959756192514e+02  2.9892983099097648e+02  2.9970548500759480e+02  3.0000000000000000e+02  2.9946081800144094e+02  2.9925517094216752e+02  2.9908050723948469e+02  2.9893095000941275e+02  2.9970619314921743e+02  3.0000000000000000e+02  2.9946222409774163e+02  2.9925725855656628e+02  2.9908325408532681e+02  2.9893432853500104e+02  2.9970738886694608e+02  3.0000000000000000e+02  2.9946459817819994e+02  2.9926078287524035e+02  2.9908789047527830e+02  2.9894002983926447e+02  2.9881283960716519e+02  2.9970909606103629e+02  3.0000000000000000e+02  2.9946798743145069e+02  2.9926581321181112e+02  2.9909450622898345e+02  2.9894816229748045e+02  2.9882240899947192e+02  2.9971134979616386e+02  3.0000000000000000e+02  2.9947246103737717e+02  2.9927245105985924e+02  2.9910323265933675e+02  2.9895888405766493e+02  2.9883501814903411e+02  2.9971419811434629e+02  3.0000000000000000e+02  2.9947811367832134e+02  2.9928083509143534e+02  2.9911424878417449e+02  2.9897241016611332e+02  2.9885091347131510e+02  2.9874642568600734e+02  2.9971770470590968e+02  3.0000000000000000e+02  2.9948507069519445e+02  2.9929114846026152e+02  2.9912779034493349e+02  2.9898902284067742e