<?xml version="1.0"?>
<VTKFile type="UnstructuredGrid"  version="0.1"  >
<UnstructuredGrid>
<Piece  NumberOfPoints="7448" NumberOfCells="37197">
<Points>
<DataArray  type="Float64"  NumberOfComponents="3"  format="ascii">0.625 0 0.35  0.65 0 0.35  0.65 0 0.375  0.65 0.025 0.375  0.625 0 0.375  0.675 0 0.35  0.675 0 0.375  0.675 0.025 0.375  0.7 0 0.35  0.7 0 0.375  0.7 0.025 0.375  0.725 0 0.35  0.725 0 0.375  0.725 0.025 0.375  0.75 0 0.35  0.75 0 0.375  0.75 0.025 0.375  0.775 0 0.375  0.775 0.025 0.375  0.65 0.025 0.4  0.65 0 0.4  0.625 0 0.4  0.675 0.025 0.4  0.675 0 0.4  0.7 0.025 0.4  0.7 0 0.4  0.725 0.025 0.4  0.725 0 0.4  0.75 0.025 0.4  0.75 0 0.4  0.775 0.025 0.4  0.775 0 0.4  0.8 0 0.375  0.8 0 0.4  0.8 0.025 0.4  0.825 0 0.375  0.825 0 0.4  0.825 0.025 0.4  0.85 0 0.375  0.85 0 0.4  0.85 0.025 0.4  0.875 0 0.4  0.875 0.025 0.4  0.675 0.05 0.4  0.7 0.05 0.4  0.725 0.05 0.4  0.75 0.05 0.4  0.775 0.05 0.4  0.8 0.05 0.4  0.65 0.025 0.425  0.65 0 0.425  0.675 0.025 0.425  0.675 0 0.425  0.7 0.025 0.425  0.7 0 0.425  0.725 0.025 0.425  0.725 0 0.425  0.75 0.025 0.425  0.75 0 0.425  0.775 0.025 0.425  0.775 0 0.425  0.8 0.025 0.425  0.8 0 0.425  0.825 0.025 0.425  0.825 0 0.425  0.85 0.025 0.425  0.85 0 0.425  0.875 0.025 0.425  0.875 0 0.425  0.9 0 0.4  0.9 0.025 0.4  0.9 0.025 0.425  0.9 0 0.425  0.925 0 0.4  0.925 0 0.425  0.925 0.025 0.425  0.95 0 0.4  0.95 0 0.425  0.95 0.025 0.425  0.975 0 0.4  0.975 0 0.425  0.975 0.025 0.425  1 0 0.425  1 0.025 0.425  0.675 0.05 0.425  0.7 0.05 0.425  0.725 0.05 0.425  0.75 0.05 0.425  0.775 0.05 0.425  0.8 0.05 0.425  0.825 0.05 0.425  0.85 0.05 0.425  0.875 0.05 0.425  0.9 0.05 0.425  0.925 0.05 0.425  0.7 0.075 0.4  0.7 0.075 0.425  0.725 0.075 0.4  0.725 0.075 0.425  0.75 0.075 0.4  0.75 0.075 0.425  0.775 0.075 0.4  0.775 0.075 0.425  0.8 0.075 0.425  0.825 0.075 0.425  0.725 0.1 0.425  0.75 0.1 0.425  0.775 0.1 0.425  0.8 0.1 0.425  0.675 0.025 0.45  0.675 0 0.45  0.65 0 0.45  0.7 0.025 0.45  0.7 0 0.45  0.725 0.025 0.45  0.725 0 0.45  0.75 0.025 0.45  0.75 0 0.45  0.775 0.025 0.45  0.775 0 0.45  0.8 0.025 0.45  0.8 0 0.45  0.825 0.025 0.45  0.825 0 0.45  0.85 0.025 0.45  0.85 0 0.45  0.875 0.025 0.45  0.875 0 0.45  0.9 0.025 0.45  0.9 0 0.45  0.925 0.025 0.45  0.925 0 0.45  0.95 0.025 0.45  0.95 0 0.45  0.975 0.025 0.45  0.975 0 0.45  1 0.025 0.45  1 0 0.45  0.7 0.05 0.45  0.725 0.05 0.45  0.75 0.05 0.45  0.775 0.05 0.45  0.8 0.05 0.45  0.825 0.05 0.45  0.85 0.05 0.45  0.875 0.05 0.45  0.9 0.05 0.45  0.925 0.05 0.45  0.95 0.05 0.425  0.95 0.05 0.45  0.975 0.05 0.45  1 0.05 0.45  0.725 0.075 0.45  0.75 0.075 0.45  0.775 0.075 0.45  0.8 0.075 0.45  0.825 0.075 0.45  0.85 0.075 0.45  0.875 0.075 0.45  0.9 0.075 0.45  0.925 0.075 0.45  0.95 0.075 0.45  0.975 0.075 0.45  0.75 0.1 0.45  0.775 0.1 0.45  0.8 0.1 0.45  0.825 0.1 0.45  0.85 0.1 0.45  0.775 0.125 0.425  0.775 0.125 0.45  0.75 0.125 0.425  0.8 0.125 0.425  0.8 0.125 0.45  0.825 0.125 0.45  0.775 0.15 0.45  0.8 0.15 0.45  0.825 0.15 0.45  0.675 0.025 0.475  0.675 0 0.475  0.65 0 0.475  0.65 0.025 0.475  0.7 0.025 0.475  0.7 0 0.475  0.725 0.025 0.475  0.725 0 0.475  0.75 0.025 0.475  0.75 0 0.475  0.775 0.025 0.475  0.775 0 0.475  0.8 0.025 0.475  0.8 0 0.475  0.825 0.025 0.475  0.825 0 0.475  0.85 0.025 0.475  0.85 0 0.475  0.875 0.025 0.475  0.875 0 0.475  0.9 0.025 0.475  0.9 0 0.475  0.925 0.025 0.475  0.925 0 0.475  0.95 0.025 0.475  0.95 0 0.475  0.975 0.025 0.475  0.975 0 0.475  1 0.025 0.475  1 0 0.475  0.7 0.05 0.475  0.725 0.05 0.475  0.75 0.05 0.475  0.775 0.05 0.475  0.8 0.05 0.475  0.825 0.05 0.475  0.85 0.05 0.475  0.875 0.05 0.475  0.9 0.05 0.475  0.925 0.05 0.475  0.95 0.05 0.475  0.975 0.05 0.475  1 0.05 0.475  0.725 0.075 0.475  0.75 0.075 0.475  0.775 0.075 0.475  0.8 0.075 0.475  0.825 0.075 0.475  0.85 0.075 0.475  0.875 0.075 0.475  0.9 0.075 0.475  0.925 0.075 0.475  0.95 0.075 0.475  0.975 0.075 0.475  1 0.075 0.45  1 0.075 0.475  0.75 0.1 0.475  0.775 0.1 0.475  0.8 0.1 0.475  0.825 0.1 0.475  0.85 0.1 0.475  0.875 0.1 0.45  0.875 0.1 0.475  0.9 0.1 0.475  0.925 0.1 0.475  0.95 0.1 0.475  0.975 0.1 0.475  1 0.1 0.475  0.775 0.125 0.475  0.8 0.125 0.475  0.825 0.125 0.475  0.85 0.125 0.45  0.85 0.125 0.475  0.875 0.125 0.45  0.875 0.125 0.475  0.9 0.125 0.475  0.8 0.15 0.475  0.825 0.15 0.475  0.85 0.15 0.45  0.85 0.15 0.475  0.875 0.15 0.475  0.9 0.15 0.475  0.825 0.175 0.475  0.85 0.175 0.475  0.875 0.175 0.475  0.6 0 0.475  0.625 0 0.475  0.625 0 0.5  0.625 0.025 0.5  0.6 0 0.5  0.65 0.025 0.5  0.65 0 0.5  0.675 0.025 0.5  0.675 0 0.5  0.7 0.025 0.5  0.7 0 0.5  0.725 0.025 0.5  0.725 0 0.5  0.75 0.025 0.5  0.75 0 0.5  0.775 0.025 0.5  0.775 0 0.5  0.8 0.025 0.5  0.8 0 0.5  0.825 0.025 0.5  0.825 0 0.5  0.85 0.025 0.5  0.85 0 0.5  0.875 0.025 0.5  0.875 0 0.5  0.9 0.025 0.5  0.9 0 0.5  0.925 0.025 0.5  0.925 0 0.5  0.95 0.025 0.5  0.95 0 0.5  0.975 0.025 0.5  0.975 0 0.5  1 0.025 0.5  1 0 0.5  0.675 0.05 0.5  0.7 0.05 0.5  0.725 0.05 0.5  0.75 0.05 0.5  0.775 0.05 0.5  0.8 0.05 0.5  0.825 0.05 0.5  0.85 0.05 0.5  0.875 0.05 0.5  0.9 0.05 0.5  0.925 0.05 0.5  0.95 0.05 0.5  0.975 0.05 0.5  1 0.05 0.5  0.725 0.075 0.5  0.75 0.075 0.5  0.775 0.075 0.5  0.8 0.075 0.5  0.825 0.075 0.5  0.85 0.075 0.5  0.875 0.075 0.5  0.9 0.075 0.5  0.925 0.075 0.5  0.95 0.075 0.5  0.975 0.075 0.5  1 0.075 0.5  0.75 0.1 0.5  0.775 0.1 0.5  0.8 0.1 0.5  0.825 0.1 0.5  0.85 0.1 0.5  0.875 0.1 0.5  0.9 0.1 0.5  0.925 0.1 0.5  0.95 0.1 0.5  0.975 0.1 0.5  1 0.1 0.5  0.775 0.125 0.5  0.8 0.125 0.5  0.825 0.125 0.5  0.85 0.125 0.5  0.875 0.125 0.5  0.9 0.125 0.5  0.925 0.125 0.475  0.925 0.125 0.5  0.95 0.125 0.475  0.95 0.125 0.5  0.975 0.125 0.475  0.975 0.125 0.5  1 0.125 0.475  1 0.125 0.5  0.8 0.15 0.5  0.825 0.15 0.5  0.85 0.15 0.5  0.875 0.15 0.5  0.9 0.15 0.5  0.925 0.15 0.475  0.925 0.15 0.5  0.95 0.15 0.5  0.975 0.15 0.5  1 0.15 0.5  0.825 0.175 0.5  0.85 0.175 0.5  0.875 0.175 0.5  0.9 0.175 0.475  0.9 0.175 0.5  0.925 0.175 0.5  0.95 0.175 0.5  0.85 0.2 0.5  0.875 0.2 0.5  0.9 0.2 0.5  0.925 0.2 0.5  0.2 0 0.5  0.225 0 0.5  0.225 0 0.525  0.225 0.025 0.525  0.25 0 0.5  0.25 0.025 0.5  0.25 0.025 0.525  0.25 0 0.525  0.225 0.025 0.5  0.275 0 0.5  0.275 0.025 0.5  0.275 0.025 0.525  0.275 0 0.525  0.3 0 0.5  0.3 0 0.525  0.3 0.025 0.525  0.325 0 0.5  0.325 0 0.525  0.325 0.025 0.525  0.35 0 0.525  0.35 0.025 0.525  0.575 0 0.5  0.6 0 0.525  0.6 0.025 0.525  0.575 0 0.525  0.575 0.025 0.525  0.625 0.025 0.525  0.625 0 0.525  0.6 0.025 0.5  0.65 0.025 0.525  0.65 0 0.525  0.675 0.025 0.525  0.675 0 0.525  0.7 0.025 0.525  0.7 0 0.525  0.725 0.025 0.525  0.725 0 0.525  0.75 0.025 0.525  0.75 0 0.525  0.775 0.025 0.525  0.775 0 0.525  0.8 0.025 0.525  0.8 0 0.525  0.825 0.025 0.525  0.825 0 0.525  0.85 0.025 0.525  0.85 0 0.525  0.875 0.025 0.525  0.875 0 0.525  0.9 0.025 0.525  0.9 0 0.525  0.925 0.025 0.525  0.925 0 0.525  0.95 0.025 0.525  0.95 0 0.525  0.975 0.025 0.525  0.975 0 0.525  1 0.025 0.525  1 0 0.525  0.25 0.05 0.525  0.275 0.05 0.525  0.3 0.05 0.525  0.625 0.05 0.5  0.625 0.05 0.525  0.65 0.05 0.5  0.65 0.05 0.525  0.675 0.05 0.525  0.7 0.05 0.525  0.725 0.05 0.525  0.75 0.05 0.525  0.775 0.05 0.525  0.8 0.05 0.525  0.825 0.05 0.525  0.85 0.05 0.525  0.875 0.05 0.525  0.9 0.05 0.525  0.925 0.05 0.525  0.95 0.05 0.525  0.975 0.05 0.525  1 0.05 0.525  0.65 0.075 0.525  0.675 0.075 0.525  0.7 0.075 0.525  0.725 0.075 0.525  0.75 0.075 0.525  0.775 0.075 0.525  0.8 0.075 0.525  0.825 0.075 0.525  0.85 0.075 0.525  0.875 0.075 0.525  0.9 0.075 0.525  0.925 0.075 0.525  0.95 0.075 0.525  0.975 0.075 0.525  1 0.075 0.525  0.75 0.1 0.525  0.725 0.1 0.525  0.775 0.1 0.525  0.8 0.1 0.525  0.825 0.1 0.525  0.85 0.1 0.525  0.875 0.1 0.525  0.9 0.1 0.525  0.925 0.1 0.525  0.95 0.1 0.525  0.975 0.1 0.525  1 0.1 0.525  0.775 0.125 0.525  0.8 0.125 0.525  0.825 0.125 0.525  0.85 0.125 0.525  0.875 0.125 0.525  0.9 0.125 0.525  0.925 0.125 0.525  0.95 0.125 0.525  0.975 0.125 0.525  1 0.125 0.525  0.8 0.15 0.525  0.825 0.15 0.525  0.85 0.15 0.525  0.875 0.15 0.525  0.9 0.15 0.525  0.925 0.15 0.525  0.95 0.15 0.525  0.975 0.15 0.525  1 0.15 0.525  0.825 0.175 0.525  0.85 0.175 0.525  0.875 0.175 0.525  0.9 0.175 0.525  0.925 0.175 0.525  0.95 0.175 0.525  0.975 0.175 0.5  0.975 0.175 0.525  1 0.175 0.525  0.85 0.2 0.525  0.875 0.2 0.525  0.9 0.2 0.525  0.925 0.2 0.525  0.95 0.2 0.5  0.95 0.2 0.525  0.975 0.2 0.525  1 0.2 0.525  0.875 0.225 0.5  0.875 0.225 0.525  0.9 0.225 0.5  0.9 0.225 0.525  0.925 0.225 0.5  0.925 0.225 0.525  0.95 0.225 0.5  0.95 0.225 0.525  0.975 0.225 0.525  0.9 0.25 0.5  0.9 0.25 0.525  0.925 0.25 0.5  0.925 0.25 0.525  0.95 0.25 0.525  0.975 0.25 0.525  0.925 0.275 0.525  0.95 0.275 0.525  0.25 0.025 0.55  0.25 0 0.55  0.225 0 0.55  0.275 0.025 0.55  0.275 0 0.55  0.3 0.025 0.55  0.3 0 0.55  0.325 0.025 0.55  0.325 0 0.55  0.35 0.025 0.55  0.35 0 0.55  0.375 0 0.525  0.375 0 0.55  0.375 0.025 0.55  0.4 0 0.525  0.4 0 0.55  0.4 0.025 0.55  0.425 0 0.525  0.425 0 0.55  0.425 0.025 0.55  0.45 0 0.525  0.45 0 0.55  0.45 0.025 0.55  0.475 0 0.525  0.475 0 0.55  0.475 0.025 0.55  0.5 0 0.525  0.5 0 0.55  0.5 0.025 0.55  0.525 0 0.525  0.525 0 0.55  0.525 0.025 0.55  0.55 0 0.525  0.55 0 0.55  0.55 0.025 0.55  0.575 0.025 0.55  0.575 0 0.55  0.6 0.025 0.55  0.6 0 0.55  0.625 0.025 0.55  0.625 0 0.55  0.65 0.025 0.55  0.65 0 0.55  0.675 0.025 0.55  0.675 0 0.55  0.7 0.025 0.55  0.7 0 0.55  0.725 0.025 0.55  0.725 0 0.55  0.75 0.025 0.55  0.75 0 0.55  0.775 0.025 0.55  0.775 0 0.55  0.8 0.025 0.55  0.8 0 0.55  0.825 0.025 0.55  0.825 0 0.55  0.85 0.025 0.55  0.85 0 0.55  0.875 0.025 0.55  0.875 0 0.55  0.9 0.025 0.55  0.9 0 0.55  0.925 0.025 0.55  0.925 0 0.55  0.95 0.025 0.55  0.95 0 0.55  0.975 0.025 0.55  0.975 0 0.55  1 0.025 0.55  1 0 0.55  0.25 0.05 0.55  0.275 0.05 0.55  0.3 0.05 0.55  0.325 0.05 0.55  0.35 0.05 0.55  0.375 0.05 0.55  0.6 0.05 0.55  0.625 0.05 0.55  0.65 0.05 0.55  0.675 0.05 0.55  0.7 0.05 0.55  0.725 0.05 0.55  0.75 0.05 0.55  0.775 0.05 0.55  0.8 0.05 0.55 
[...]
<PointData  Scalars="f_11"> 
<DataArray  type="Float64"  Name="f_11"  format="ascii">3.0000000000000000e+02  3.0000000000000000e+02  3.0000000000000000e+02  2.9937653403223101e+02  3.0000000000000000e+02  3.0000000000000000e+02  3.0000000000000000e+02  2.9938858654968845e+02  3.0000000000000000e+02  3.0000000000000000e+02  2.9940300801784389e+02  3.0000000000000000e+02  3.0000000000000000e+02  2.9942004996453466e+02  3.0000000000000000e+02  3.0000000000000000e+02  2.9944002229990906e+02  3.0000000000000000e+02  2.9946330747908314e+02  2.9936876708366935e+02  3.0000000000000000e+02  3.0000000000000000e+02  2.9938109625942383e+02  3.0000000000000000e+02  2.9939583978710237e+02  3.0000000000000000e+02  2.9941324993388253e+02  3.0000000000000000e+02  2.9943363711092411e+02  3.0000000000000000e+02  2.9945738390085324e+02  3.0000000000000000e+02  3.0000000000000000e+02  3.0000000000000000e+02  2.9948496531043793e+02  3.0000000000000000e+02  3.0000000000000000e+02  2.9951697906297693e+02  3.0000000000000000e+02  3.0000000000000000e+02  2.9955419299274337e+02  3.0000000000000000e+02  2.9959762350192625e+02  2.9882042458068503e+02  2.9884976678990807e+02  2.9888440009198695e+02  2.9892493167556205e+02  2.9897210672924996e+02  2.9902684505566214e+02  2.9936284844151538e+02  3.0000000000000000e+02  2.9937539095676169e+02  3.0000000000000000e+02  2.9939038251951814e+02  3.0000000000000000e+02  2.9940807583109876e+02  3.0000000000000000e+02  2.9942878153928905e+02  3.0000000000000000e+02  2.9945288216802578e+02  3.0000000000000000e+02  2.9948085226543066e+02  3.0000000000000000e+02  2.9951328859093695e+02  3.0000000000000000e+02  2.9955095741290825e+02  3.0000000000000000e+02  2.9959487288925334e+02  3.0000000000000000e+02  3.0000000000000000e+02  2.9964867492480789e+02  2.9964643639086052e+02  3.0000000000000000e+02  3.0000000000000000e+02  3.0000000000000000e+02  2.9970770671056528e+02  2.9999999999999994e+02  2.9999999999999994e+02  2.9978198274294499e+02  3.0000000000000000e+02  3.0000000000000000e+02  2.9987522406748457e+02  3.0000000000000000e+02  3.0000000000000000e+02  2.9880906950953585e+02  2.9883890590587822e+02  2.9887410335210916e+02  2.9891526949328397e+02  2.9896314938379652e+02  2.9901866189291297e+02  2.9908295292029590e+02  2.9915747590860934e+02  2.9924411860308101e+02  2.9934541156643940e+02  2.9946488675014916e+02  2.9835759425638048e+02  2.9834143725519579e+02  2.9840904712183652e+02  2.9839373045334258e+02  2.9846920846750919e+02  2.9845483689001907e+02  2.9853914989613457e+02  2.9852582792565551e+02  2.9860801341096277e+02  2.9870300733030712e+02  2.9796273243504652e+02  2.9804301911570502e+02  2.9813615843130719e+02  2.9824378541716789e+02  2.9937137906600344e+02  3.0000000000000000e+02  3.0000000000000000e+02  2.9938654645720419e+02  3.0000000000000000e+02  2.9940444028700682e+02  3.0000000000000000e+02  2.9942537129426324e+02  3.0000000000000000e+02  2.9944972188158795e+02  3.0000000000000000e+02  2.9947796619424815e+02  3.0000000000000000e+02  2.9951070023931521e+02  3.0000000000000000e+02  2.9954868912261327e+02  3.0000000000000000e+02  2.9959294538381994e+02  3.0000000000000000e+02  2.9964486829905468e+02  3.0000000000000000e+02  2.9970651410532497e+02  3.0000000000000000e+02  2.9978117874913391e+02  2.9999999999999994e+02  2.9987481862804498e+02  3.0000000000000000e+02  3.0000000000000000e+02  3.0000000000000000e+02  2.9883127056618781e+02  2.9886686752949333e+02  2.9890848253244604e+02  2.9895686037672988e+02  2.9901291911642716e+02  2.9907780313791324e+02  2.9915296355099684e+02  2.9924028485618635e+02  2.9934229341378233e+02  2.9946251603408928e+02  2.9960771706521251e+02  2.9960611965024725e+02  2.9978106174977461e+02  2.9999999999999994e+02  2.9838296487303887e+02  2.9844473990894073e+02  2.9851647256888822e+02  2.9859947146065758e+02  2.9869534828450060e+02  2.9880611230515109e+02  2.9893430971347419e+02  2.9908323283955917e+02  2.9925723608816764e+02  2.9946220294914815e+02  2.9970617822272482e+02  2.9802970967002614e+02  2.9812382774415096e+02  2.9823252800950098e+02  2.9835779413831887e+02  2.9850205271895669e+02  2.9778967842772892e+02  2.9777448911917429e+02  2.9767558480262409e+02  2.9792124644737169e+02  2.9790738076058233e+02  2.9806012512367442e+02  2.9746436450227492e+02  2.9761975694917396e+02  2.9779788647021945e+02  2.9936899702667120e+02  3.0000000000000000e+02  3.0000000000000000e+02  2.9935621271025803e+02  2.9938426938255748e+02  3.0000000000000000e+02  2.9940228283102044e+02  3.0000000000000000e+02  2.9942334813519085e+02  3.0000000000000000e+02  2.9944784759409015e+02  3.0000000000000000e+02  2.9947625508220762e+02  3.0000000000000000e+02  2.9950916613060605e+02  3.0000000000000000e+02  2.9954734513062652e+02  3.0000000000000000e+02  2.9959180364493875e+02  3.0000000000000000e+02  2.9964393970048530e+02  3.0000000000000000e+02  2.9970580802401912e+02  3.0000000000000000e+02  2.9978070283195717e+02  2.9999999999999994e+02  2.9987457866409017e+02  3.0000000000000000e+02  3.0000000000000000e+02  3.0000000000000000e+02  2.9882673787405167e+02  2.9886257317722402e+02  2.9890445575048568e+02  2.9895313018307013e+02  2.9900951398262231e+02  2.9907475057914218e+02  2.9915028964949880e+02  2.9923801373577777e+02  2.9934044669257196e+02  2.9946111229230337e+02  2.9960517395968259e+02  2.9978058532017911e+02  2.9999999999999994e+02  2.9837657482237324e+02  2.9843874844369998e+02  2.9851092286055513e+02  2.9859440585094325e+02  2.9869080767391745e+02  2.9880213544221164e+02  2.9893093241005448e+02  2.9908048715087500e+02  2.9925514950795605e+02  2.9946079767945582e+02  2.9970547057921027e+02  3.0000000000000000e+02  3.0000000000000000e+02  2.9802181056081224e+02  2.9811651170541660e+02  2.9822585080927502e+02  2.9835180961563054e+02  2.9849681184634420e+02  2.9866830027104805e+02  2.9866385011944527e+02  2.9885665896404805e+02  2.9907994385668843e+02  2.9933966183935382e+02  2.9964330190714503e+02  3.0000000000000000e+02  2.9776547505231321e+02  2.9789915465560830e+02  2.9805275318682430e+02  2.9823543742878468e+02  2.9822898229615197e+02  2.9843658905546238e+02  2.9843110852048090e+02  2.9866308025350770e+02  2.9761005658622241e+02  2.9778919431846202e+02  2.9800165207845384e+02  2.9799404178158267e+02  2.9822800979279606e+02  2.9849511054978785e+02  2.9755723437334649e+02  2.9778805617362912e+02  2.9805067256796417e+02  3.0000000000000000e+02  3.0000000000000000e+02  3.0000000000000000e+02  2.9934486626465429e+02  3.0000000000000000e+02  2.9935539300383397e+02  3.0000000000000000e+02  2.9936820741754514e+02  3.0000000000000000e+02  2.9938351469678548e+02  3.0000000000000000e+02  2.9940156792762048e+02  3.0000000000000000e+02  2.9942267787554061e+02  3.0000000000000000e+02  2.9944722679887599e+02  3.0000000000000000e+02  2.9947568847555806e+02  3.0000000000000000e+02  2.9950865827191694e+02  3.0000000000000000e+02  2.9954690033573058e+02  3.0000000000000000e+02  2.9959142589966251e+02  3.0000000000000000e+02  2.9964363257124671e+02  3.0000000000000000e+02  2.9970557457200607e+02  3.0000000000000000e+02  2.9978054554012323e+02  2.9999999999999994e+02  2.9987449939204924e+02  3.0000000000000000e+02  3.0000000000000000e+02  3.0000000000000000e+02  2.9879477002728959e+02  2.9882523550553799e+02  2.9886115007174720e+02  2.9890312158913213e+02  2.9895189456401420e+02  2.9900838630959163e+02  2.9907373992532195e+02  2.9914940460009643e+02  2.9923726221513135e+02  2.9933983578461806e+02  2.9946064806616567e+02  2.9960486131489824e+02  2.9978042786838228e+02  2.9999999999999994e+02  2.9837445701781382e+02  2.9843676313289518e+02  2.9850908432409591e+02  2.9859272807496234e+02  2.9868930414721927e+02  2.9880081892159905e+02  2.9892981466237319e+02  2.9907957868434914e+02  2.9925445930908018e+02  2.9946033297427215e+02  2.9970523663800145e+02  3.0000000000000000e+02  2.9801919282486602e+02  2.9811408769877409e+02  2.9822363895538962e+02  2.9834982767343791e+02  2.9849507660091211e+02  2.9866237704189422e+02  2.9885546185686400e+02  2.9907903450503153e+02  2.9933904969181219e+02  2.9964299380931124e+02  3.0000000000000000e+02  2.9776248802051140e+02  2.9789642931146756e+02  2.9805031137308748e+02  2.9822684464406217e+02  2.9842929403190698e+02  2.9866160586511518e+02  2.9892967447891562e+02  2.9892855463326839e+02  2.9923664310331219e+02  2.9923588935521326e+02  2.9959080717337048e+02  2.9959042786003778e+02  3.0000000000000000e+02  3.0000000000000000e+02  2.9760684230468047e+02  2.9778631472551774e+02  2.9799152114105618e+02  2.9822587043548543e+02  2.9849337236257838e+02  2.9880004240281841e+02  2.9879872232619925e+02  2.9914736551463494e+02  2.9954550448077043e+02  3.0000000000000000e+02  2.9755394205363882e+02  2.9778517454606305e+02  2.9804822706900148e+02  2.9834907112149438e+02  2.9834708438628650e+02  2.9868629450381843e+02  2.9907098674812687e+02  2.9760446138411191e+02  2.9789315566986335e+02  2.9821979814186722e+02  2.9858876662173299e+02  3.0000000000000000e+02  3.0000000000000000e+02  3.0000000000000000e+02  2.9944784868479735e+02  3.0000000000000000e+02  2.9942267785243138e+02  2.9942334859259012e+02  3.0000000000000000e+02  2.9944722739440897e+02  3.0000000000000000e+02  2.9940156743903242e+02  2.9940228280926283e+02  3.0000000000000000e+02  3.0000000000000000e+02  3.0000000000000000e+02  2.9938426902665964e+02  3.0000000000000000e+02  3.0000000000000000e+02  2.9936899646915583e+02  3.0000000000000000e+02  2.9935621206906120e+02  3.0000000000000000e+02  3.0000000000000000e+02  2.9933732912524198e+02  3.0000000000000000e+02  2.9933093627702300e+02  2.9934571199894481e+02  3.0000000000000000e+02  2.9933646284676701e+02  2.9935621348646816e+02  3.0000000000000000e+02  2.9936899787993912e+02  3.0000000000000000e+02  2.9938427031758215e+02  3.0000000000000000e+02  2.9940228385095992e+02  3.0000000000000000e+02  2.9942334924059531e+02  3.0000000000000000e+02  2.9944784878161494e+02  3.0000000000000000e+02  2.9947625634309492e+02  3.0000000000000000e+02  2.9950916744892243e+02  3.0000000000000000e+02  2.9954734648122223e+02  3.0000000000000000e+02  2.9959180499103303e+02  3.0000000000000000e+02  2.9964394099061985e+02  3.0000000000000000e+02  2.9970580918772208e+02  3.0000000000000000e+02  2.9978070377239959e+02  2.9999999999999994e+02  2.9987457924296137e+02  3.0000000000000000e+02  3.0000000000000000e+02  3.0000000000000000e+02  2.9890445784971683e+02  2.9886257423167280e+02  2.9882673815820579e+02  2.9874829290570074e+02  2.9874997657620958e+02  2.9876925702388036e+02  2.9877089036509949e+02  2.9879634353760372e+02  2.9882673957931564e+02  2.9886257503604139e+02  2.9890445776286566e+02  2.9895313234157027e+02  2.9900951626953378e+02  2.9907475296324697e+02  2.9915029208236473e+02  2.9923801614747777e+02  2.9934044898652530e+02  2.9946111433853673e+02  2.9960517558498714e+02  2.9978058629214661e+02  2.9999999999999994e+02  2.9824027576638736e+02  2.9827814052667065e+02  2.9832333369848817e+02  2.9837657735933385e+02  2.9843875118877105e+02  2.9851092580200213e+02  2.9859440896252926e+02  2.9869081091048270e+02  2.9880213873472019e+02  2.9893093566005399e+02  2.9908049022419431e+02  2.9925515222721805e+02  2.9946079981462674e+02  2.9970547183508199e+02  3.0000000000000000e+02  2.9802181388700672e+02  2.9794011822550812e+02  2.9811651526796521e+02  2.9822585457422633e+02  2.9835181352560301e+02  2.9849681581469775e+02  2.9866385402398896e+02  2.9885666264028617e+02  2.9907994709050666e+02  2.9933966435895150e+02  2.9964330337410138e+02  3.0000000000000000e+02  2.9776547909773012e+02  2.9789915892905486e+02  2.9805275762053486e+02  2.9822898678884377e+02  2.9843111293067000e+02  2.9866308439271251e+02  2.9892967810489608e+02  2.9923664591349439e+02  2.9959080879872397e+02  3.0000000000000000e+02  2.9761006124622696e+02  2.9778919915108861e+02  2.9799404667362751e+02  2.9822801458737473e+02  2.9849511503970712e+02  2.9880004632447083e+02  2.9914825697569859e+02  2.9954595327383333e+02  3.0000000000000000e+02  2.9755723950088799e+02  2.9778806136169635e+02  2.9805067764758104e+02  2.9834907587107011e+02  2.9868780735020255e+02  2.9907200524067059e+02  2.9950684317098836e+02  2.9950735585609499e+02  3.0000000000000000e+02  2.9760768533994263e+02  2.9789589212999783e+02  2.9822202170479375e+02  2.9859045558978789e+02  2.9900489800068556e+02  2.9900603495113734e+02  2.9947401929379964e+02  3.0000000000000000e+02  2.9775799329853589e+02  2.9776099380500591e+02  2.9810913084983872e+02  2.9811156872184790e+02  2.9850416400102586e+02  2.9850601558016757e+02  2.9894767248025903e+02  2.9894891878973567e+02  2.9944519099484791e+02  2.9801313472459657e+02  2.9801576841576195e+02  2.9843090320276997e+02  2.9843290334023465e+02  2.9889953175266334e+02  2.9942028504195349e+02  2.9836983267862666e+02  2.9885697135317002e+02  2.9942537223735320e+02  3.0000000000000000e+02  3.0000000000000000e+02  2.9940444074032172e+02  3.0000000000000000e+02  2.9938654656667336e+02  3.0000000000000000e+02  2.9937137896525110e+02  3.0000000000000000e+02  2.9935868498256406e+02  3.0000000000000000e+02  3.0000000000000000e+02  3.0000000000000000e+02  2.9934825963310209e+02  3.0000000000000000e+02  3.0000000000000000e+02  2.9933993880201274e+02  3.0000000000000000e+02  3.0000000000000000e+02  2.9933359407731950e+02  3.0000000000000000e+02  3.0000000000000000e+02  2.9932912900298345e+02  3.0000000000000000e+02  3.0000000000000000e+02  2.9932647642568486e+02  3.0000000000000000e+02  3.0000000000000000e+02  2.9932559672558841e+02  3.0000000000000000e+02  3.0000000000000000e+02  2.9932647680155475e+02  3.0000000000000000e+02  3.0000000000000000e+02  2.9932912974027903e+02  2.9933359514697639e+02  3.0000000000000000e+02  2.9933994016000594e+02  3.0000000000000000e+02  2.9934826121995980e+02  3.0000000000000000e+02  2.9935868672277491e+02  3.0000000000000000e+02  2.9937138076663092e+02  3.0000000000000000e+02  2.9938654831979471e+02  3.0000000000000000e+02  2.9940444231817656e+02  3.0000000000000000e+02  2.9942537349551327e+02  3.0000000000000000e+02  2.9944972424672250e+02  3.0000000000000000e+02  2.9947796870631623e+02  3.0000000000000000e+02  2.9951070286704737e+02  3.0000000000000000e+02  2.9954869181628078e+02  3.0000000000000000e+02  2.9959294807033029e+02  3.0000000000000000e+02  2.9964487087576987e+02  3.0000000000000000e+02  2.9970651643129116e+02  3.0000000000000000e+02  2.9978118063028677e+02  2.9999999999999994e+02  2.9987481978681291e+02  3.0000000000000000e+02  3.0000000000000000e+02  3.0000000000000000e+02  2.9890848551343885e+02  2.9886686944719378e+02  2.9883127169637140e+02  2.9880108442317311e+02  2.9877581127554549e+02  2.9875504907052925e+02  2.9873847651141921e+02  2.9875505144723581e+02  2.9877581380558382e+02  2.9880108692685405e+02  2.9883127396162769e+02  2.9886687122973262e+02  2.9890848653823974e+02  2.9895686467409917e+02  2.9901292367098870e+02  2.9907780788832417e+02  2.9915296840143839e+02  2.9924028966766707e+02  2.9934229799366398e+02  2.9946252012244037e+02  2.9960612289998869e+02  2.9978106369457277e+02  2.9999999999999994e+02  2.9838296902580925e+02  2.9844474572723271e+02  2.9833007937080680e+02  2.9828519710305176e+02  2.9824760294671631e+02  2.9828519939626284e+02  2.9833008113663180e+02  2.9838296992087265e+02  2.9844474537083903e+02  2.9851647842263691e+02  2.9859947765521321e+02  2.9869535473105367e+02  2.9880611886707430e+02  2.9893431619506316e+02  2.9908323897321725e+02  2.9925724151921872e+02  2.9946220721673444e+02  2.9970618073459826e+02  3.0000000000000000e+02  2.9781988294956847e+02  2.9787897486998764e+02  2.9794854655438553e+02  2.9802971628509067e+02  2.9812383483086688e+02  2.9823253550173189e+02  2.9835780192316423e+02  2.9850206062491975e+02  2.9866830805523642e+02  2.9886028364331446e+02  2.9908269881935161e+02  2.9934151754260409e+02  2.9964423652510675e+02  3.0000000000000000e+02  2.9765919565485297e+02  2.9777449716278608e+02  2.9790738926117183e+02  2.9806013394787090e+02  2.9823544637609382e+02  2.9843659784465410e+02  2.9866754282771842e+02  2.9893306569128731e+02  2.9923892692164651e+02  2.9959195714885078e+02  3.0000000000000000e+02  2.9761976621480130e+02  2.9779789608465393e+02  2.9800166181760090e+02  2.9823447989296943e+02  2.9850036971952647e+02  2.9880403838842108e+02  2.9915094464490210e+02  2.9954730616737919e+02  3.0000000000000000e+02  2.9756718084365247e+02  2.9779676510506914e+02  2.9805806631669827e+02  2.9835508032406398e+02  2.9869236851913990e+02  2.9907507573261665e+02  2.9950890129486055e+02  3.0000000000000000e+02  2.9761740459937897e+02  2.9790414196671622e+02  2.9822872528504251e+02  2.9859554733718880e+02  2.9900946231271467e+02  2.9947574421690103e+02  3.0000000000000000e+02  2.9777003876067675e+02  2.9811891767831196e+02  2.9851159703664342e+02  2.9895267549778703e+02  2.9944708155242171e+02  3.0000000000000000e+02  3.0000000000000000e+02  2.9802370686633498e+02  2.9843893203362137e+02  2.9890358921209594e+02  2.9942232684589516e+02  3.0000000000000000e+02  3.0000000000000000e+02  2.9886130032815964e+02  2.9939883531542949e+02  2.9940101365656471e+02  3.0000000000000000e+02  3.0000000000000000e+02  2.9942878297683558e+02  3.0000000000000000e+02  3.0000000000000000e+02  2.9940807677189179e+02  3.0000000000000000e+02  2.9939038310971387e+02  3.0000000000000000e+02  2.9937539133032692e+02  3.0000000000000000e+02  2.9936284871779469e+02  3.0000000000000000e+02  2.9935255061091715e+02  3.0000000000000000e+02  2.9934433325408480e+02  3.0000000000000000e+02  2.9933806858619653e+02  3.0000000000000000e+02  2.9933366045902676e+02  3.0000000000000000e+02  2.9933104195765799e+02  3.0000000000000000e+02  2.9933017361283083e+02  3.0000000000000000e+02  2.9933104237527829e+02  3.0000000000000000e+02  2.9933366128124442e+02  3.0000000000000000e+02  2.9933806978670862e+02  3.0000000000000000e+02  2.9934433479280614e+02  3.0000000000000000e+02  2.9935255243323780e+02  3.0000000000000000e+02  2.9936285075362781e+02  3.0000000000000000e+02  2.9937539349299658e+02  3.0000000000000000e+02  2.9939038529477403e+02  3.0000000000000000e+02  2.9940807885603311e+02  3.0000000000000000e+02  2.9942878481713961e+02  3.0000000000000000e+02  2.9945288569072608e+02  3.0000000000000000e+02  2.9948085600897139e+02  3.0000000000000000e+02  2.9951329250992296e+02  3.0000000000000000e+02  2.9955096143420405e+02  3.0000000000000000e+02  2.9959487690443251e+02  3.0000000000000000e+02  2.9964644024670423e+02  3.0000000000000000e+02  2.9970771019565467e+02  3.0000000000000000e+02  2.9978198556518549e+02  2.9999999999999994e+02  2.9987522580814044e+02  3.0000000000000000e+02  3.0000000000000000e+02  3.0000000000000000e+02  2.9887410615054301e+02  2.9891527336660653e+02  2.9883890790526465e+02  2.9880907096524152e+02  2.9878409944375306e+02  2.9876359079737631e+02  2.9874722236428221e+02  2.9873474147702291e+02  2.9872595824627825e+02  2.9872074042594090e+02  2.9871900997717302e+02  2.9871165215373253e+02  2.9872074109327821e+02  2.9870989848706586e+02  2.9871693844408679e+02  2.9872595955501197e+02  2.9872583566680947e+02  2.9873474337483196e+02  2.9874722477160873e+02  2.9876359360618153e+02  2.9878410251596370e+02  2.9880907413101642e+02  2.9883891096130947e+02  2.9887410885885646e+02  2.9891527545429506e+02  2.9896315578035484e+02  2.9901866867603826e+02  2.9908296000073477e+02  2.9915748314530066e+02  2.9924412578976489e+02  2.9934541841554199e+02  2.9946489287187836e+02  2.9960772193733430e+02  2.9978186953129710e+02  2.9999999999999994e+02  2.9839373579143086e+02  2.9834144129237973e+02  2.9829708098399118e+02  2.9825993374264772e+02  2.9822941204895977e+02  2.9820504366943203e+02  2.9816560458578789e+02  2.9817337774712485e+02  2.9818646020131467e+02  2.9820504636990967e+02  2.9822941513231586e+02  2.9825993700900563e+02  2.9821670337863134e+02  2.9829708418917312e+02  2.9834144414670027e+02  2.9839373795965685e+02  2.9845484501185234e+02  2.9852583663280524e+02  2.9860802263044968e+02  2.9870301693272910e+02  2.9881283223876903e+02  2.9894001951749357e+02  2.9908787729132877e