<?xml version="1.0"?>
<VTKFile type="UnstructuredGrid"  version="0.1"  >
<UnstructuredGrid>
<Piece  NumberOfPoints="7652" NumberOfCells="39001">
<Points>
<DataArray  type="Float64"  NumberOfComponents="3"  format="ascii">0.5 0 0  0.525 0 0  0.525 0.025 0  0.525 0.025 0.025  0.525 0 0.025  0.5 0 0.025  0.5 0.025 0  0.5 0.025 0.025  0.55 0 0  0.55 0.025 0  0.55 0.025 0.025  0.55 0 0.025  0.575 0 0  0.575 0.025 0  0.575 0.025 0.025  0.575 0 0.025  0.6 0 0  0.6 0.025 0  0.6 0.025 0.025  0.6 0 0.025  0.625 0 0  0.625 0.025 0  0.625 0.025 0.025  0.625 0 0.025  0.65 0 0  0.65 0.025 0  0.65 0.025 0.025  0.65 0 0.025  0.675 0 0  0.675 0.025 0  0.675 0.025 0.025  0.675 0 0.025  0.7 0 0  0.7 0.025 0  0.7 0.025 0.025  0.7 0 0.025  0.725 0 0  0.725 0.025 0  0.725 0.025 0.025  0.725 0 0.025  0.75 0 0  0.75 0.025 0  0.75 0.025 0.025  0.75 0 0.025  0.775 0 0  0.775 0.025 0  0.775 0.025 0.025  0.775 0 0.025  0.8 0 0  0.8 0.025 0  0.8 0.025 0.025  0.8 0 0.025  0.825 0 0  0.825 0.025 0  0.825 0.025 0.025  0.825 0 0.025  0.85 0 0  0.85 0.025 0  0.85 0.025 0.025  0.85 0 0.025  0.875 0 0  0.875 0.025 0  0.875 0.025 0.025  0.875 0 0.025  0.9 0 0  0.9 0.025 0  0.9 0.025 0.025  0.9 0 0.025  0.925 0 0  0.925 0.025 0  0.925 0.025 0.025  0.925 0 0.025  0.95 0 0  0.95 0.025 0  0.95 0.025 0.025  0.95 0 0.025  0.975 0 0  0.975 0.025 0  0.975 0.025 0.025  0.975 0 0.025  1 0 0  1 0.025 0  1 0.025 0.025  1 0 0.025  0.525 0.05 0  0.525 0.05 0.025  0.55 0.05 0  0.55 0.05 0.025  0.575 0.05 0  0.575 0.05 0.025  0.6 0.05 0  0.6 0.05 0.025  0.625 0.05 0  0.625 0.05 0.025  0.65 0.05 0  0.65 0.05 0.025  0.675 0.05 0  0.675 0.05 0.025  0.7 0.05 0  0.7 0.05 0.025  0.725 0.05 0  0.725 0.05 0.025  0.75 0.05 0  0.75 0.05 0.025  0.775 0.05 0  0.775 0.05 0.025  0.8 0.05 0  0.8 0.05 0.025  0.825 0.05 0  0.825 0.05 0.025  0.85 0.05 0  0.85 0.05 0.025  0.875 0.05 0  0.875 0.05 0.025  0.9 0.05 0  0.9 0.05 0.025  0.925 0.05 0  0.925 0.05 0.025  0.95 0.05 0  0.95 0.05 0.025  0.975 0.05 0  0.975 0.05 0.025  1 0.05 0  1 0.05 0.025  0.55 0.075 0  0.55 0.075 0.025  0.525 0.075 0  0.525 0.075 0.025  0.575 0.075 0  0.575 0.075 0.025  0.6 0.075 0  0.6 0.075 0.025  0.625 0.075 0  0.625 0.075 0.025  0.65 0.075 0  0.65 0.075 0.025  0.675 0.075 0  0.675 0.075 0.025  0.7 0.075 0  0.7 0.075 0.025  0.725 0.075 0  0.725 0.075 0.025  0.75 0.075 0  0.75 0.075 0.025  0.775 0.075 0  0.775 0.075 0.025  0.8 0.075 0  0.8 0.075 0.025  0.825 0.075 0  0.825 0.075 0.025  0.85 0.075 0  0.85 0.075 0.025  0.875 0.075 0  0.875 0.075 0.025  0.9 0.075 0  0.9 0.075 0.025  0.925 0.075 0  0.925 0.075 0.025  0.95 0.075 0  0.95 0.075 0.025  0.975 0.075 0  0.975 0.075 0.025  1 0.075 0  1 0.075 0.025  0.55 0.1 0  0.55 0.1 0.025  0.525 0.1 0  0.525 0.1 0.025  0.575 0.1 0  0.575 0.1 0.025  0.6 0.1 0  0.6 0.1 0.025  0.625 0.1 0  0.625 0.1 0.025  0.65 0.1 0  0.65 0.1 0.025  0.675 0.1 0  0.675 0.1 0.025  0.7 0.1 0  0.7 0.1 0.025  0.725 0.1 0  0.725 0.1 0.025  0.75 0.1 0  0.75 0.1 0.025  0.775 0.1 0  0.775 0.1 0.025  0.8 0.1 0  0.8 0.1 0.025  0.825 0.1 0  0.825 0.1 0.025  0.85 0.1 0  0.85 0.1 0.025  0.875 0.1 0  0.875 0.1 0.025  0.9 0.1 0  0.9 0.1 0.025  0.925 0.1 0  0.925 0.1 0.025  0.95 0.1 0  0.95 0.1 0.025  0.975 0.1 0  0.975 0.1 0.025  1 0.1 0  1 0.1 0.025  0.55 0.125 0  0.55 0.125 0.025  0.525 0.125 0  0.525 0.125 0.025  0.575 0.125 0  0.575 0.125 0.025  0.6 0.125 0  0.6 0.125 0.025  0.625 0.125 0  0.625 0.125 0.025  0.65 0.125 0  0.65 0.125 0.025  0.675 0.125 0  0.675 0.125 0.025  0.7 0.125 0  0.7 0.125 0.025  0.725 0.125 0  0.725 0.125 0.025  0.75 0.125 0  0.75 0.125 0.025  0.775 0.125 0  0.775 0.125 0.025  0.8 0.125 0  0.8 0.125 0.025  0.825 0.125 0  0.825 0.125 0.025  0.85 0.125 0  0.85 0.125 0.025  0.875 0.125 0  0.875 0.125 0.025  0.9 0.125 0  0.9 0.125 0.025  0.925 0.125 0  0.925 0.125 0.025  0.95 0.125 0  0.95 0.125 0.025  0.975 0.125 0  0.975 0.125 0.025  1 0.125 0  1 0.125 0.025  0.55 0.15 0  0.55 0.15 0.025  0.525 0.15 0  0.575 0.15 0  0.575 0.15 0.025  0.6 0.15 0  0.6 0.15 0.025  0.625 0.15 0  0.625 0.15 0.025  0.65 0.15 0  0.65 0.15 0.025  0.675 0.15 0  0.675 0.15 0.025  0.7 0.15 0  0.7 0.15 0.025  0.725 0.15 0  0.725 0.15 0.025  0.75 0.15 0  0.75 0.15 0.025  0.775 0.15 0  0.775 0.15 0.025  0.8 0.15 0  0.8 0.15 0.025  0.825 0.15 0  0.825 0.15 0.025  0.85 0.15 0  0.85 0.15 0.025  0.875 0.15 0  0.875 0.15 0.025  0.9 0.15 0  0.9 0.15 0.025  0.925 0.15 0  0.925 0.15 0.025  0.95 0.15 0  0.95 0.15 0.025  0.975 0.15 0  0.975 0.15 0.025  1 0.15 0  1 0.15 0.025  0.55 0.175 0  0.55 0.175 0.025  0.575 0.175 0  0.575 0.175 0.025  0.6 0.175 0  0.6 0.175 0.025  0.625 0.175 0  0.625 0.175 0.025  0.65 0.175 0  0.65 0.175 0.025  0.675 0.175 0  0.675 0.175 0.025  0.7 0.175 0  0.7 0.175 0.025  0.725 0.175 0  0.725 0.175 0.025  0.75 0.175 0  0.75 0.175 0.025  0.775 0.175 0  0.775 0.175 0.025  0.8 0.175 0  0.8 0.175 0.025  0.825 0.175 0  0.825 0.175 0.025  0.85 0.175 0  0.85 0.175 0.025  0.875 0.175 0  0.875 0.175 0.025  0.9 0.175 0  0.9 0.175 0.025  0.925 0.175 0  0.925 0.175 0.025  0.95 0.175 0  0.95 0.175 0.025  0.975 0.175 0  0.975 0.175 0.025  1 0.175 0  1 0.175 0.025  0.575 0.2 0  0.575 0.2 0.025  0.55 0.2 0  0.55 0.2 0.025  0.6 0.2 0  0.6 0.2 0.025  0.625 0.2 0  0.625 0.2 0.025  0.65 0.2 0  0.65 0.2 0.025  0.675 0.2 0  0.675 0.2 0.025  0.7 0.2 0  0.7 0.2 0.025  0.725 0.2 0  0.725 0.2 0.025  0.75 0.2 0  0.75 0.2 0.025  0.775 0.2 0  0.775 0.2 0.025  0.8 0.2 0  0.8 0.2 0.025  0.825 0.2 0  0.825 0.2 0.025  0.85 0.2 0  0.85 0.2 0.025  0.875 0.2 0  0.875 0.2 0.025  0.9 0.2 0  0.9 0.2 0.025  0.925 0.2 0  0.925 0.2 0.025  0.95 0.2 0  0.95 0.2 0.025  0.975 0.2 0  0.975 0.2 0.025  1 0.2 0  1 0.2 0.025  0.575 0.225 0  0.575 0.225 0.025  0.6 0.225 0  0.6 0.225 0.025  0.625 0.225 0  0.625 0.225 0.025  0.65 0.225 0  0.65 0.225 0.025  0.675 0.225 0  0.675 0.225 0.025  0.7 0.225 0  0.7 0.225 0.025  0.725 0.225 0  0.725 0.225 0.025  0.75 0.225 0  0.75 0.225 0.025  0.775 0.225 0  0.775 0.225 0.025  0.8 0.225 0  0.8 0.225 0.025  0.825 0.225 0  0.825 0.225 0.025  0.85 0.225 0  0.85 0.225 0.025  0.875 0.225 0  0.875 0.225 0.025  0.9 0.225 0  0.9 0.225 0.025  0.925 0.225 0  0.925 0.225 0.025  0.95 0.225 0  0.95 0.225 0.025  0.975 0.225 0  0.975 0.225 0.025  1 0.225 0  1 0.225 0.025  0.6 0.25 0  0.6 0.25 0.025  0.625 0.25 0  0.625 0.25 0.025  0.65 0.25 0  0.65 0.25 0.025  0.675 0.25 0  0.675 0.25 0.025  0.7 0.25 0  0.7 0.25 0.025  0.725 0.25 0  0.725 0.25 0.025  0.75 0.25 0  0.75 0.25 0.025  0.775 0.25 0  0.775 0.25 0.025  0.8 0.25 0  0.8 0.25 0.025  0.825 0.25 0  0.825 0.25 0.025  0.85 0.25 0  0.85 0.25 0.025  0.875 0.25 0  0.875 0.25 0.025  0.9 0.25 0  0.9 0.25 0.025  0.925 0.25 0  0.925 0.25 0.025  0.95 0.25 0  0.95 0.25 0.025  0.975 0.25 0  0.975 0.25 0.025  1 0.25 0  1 0.25 0.025  0.625 0.275 0  0.625 0.275 0.025  0.6 0.275 0  0.6 0.275 0.025  0.65 0.275 0  0.65 0.275 0.025  0.675 0.275 0  0.675 0.275 0.025  0.7 0.275 0  0.7 0.275 0.025  0.725 0.275 0  0.725 0.275 0.025  0.75 0.275 0  0.75 0.275 0.025  0.775 0.275 0  0.775 0.275 0.025  0.8 0.275 0  0.8 0.275 0.025  0.825 0.275 0  0.825 0.275 0.025  0.85 0.275 0  0.85 0.275 0.025  0.875 0.275 0  0.875 0.275 0.025  0.9 0.275 0  0.9 0.275 0.025  0.925 0.275 0  0.925 0.275 0.025  0.95 0.275 0  0.95 0.275 0.025  0.975 0.275 0  0.975 0.275 0.025  1 0.275 0  1 0.275 0.025  0.625 0.3 0  0.625 0.3 0.025  0.6 0.3 0  0.6 0.3 0.025  0.65 0.3 0  0.65 0.3 0.025  0.675 0.3 0  0.675 0.3 0.025  0.7 0.3 0  0.7 0.3 0.025  0.725 0.3 0  0.725 0.3 0.025  0.75 0.3 0  0.75 0.3 0.025  0.775 0.3 0  0.775 0.3 0.025  0.8 0.3 0  0.8 0.3 0.025  0.825 0.3 0  0.825 0.3 0.025  0.85 0.3 0  0.85 0.3 0.025  0.875 0.3 0  0.875 0.3 0.025  0.9 0.3 0  0.9 0.3 0.025  0.925 0.3 0  0.925 0.3 0.025  0.95 0.3 0  0.95 0.3 0.025  0.975 0.3 0  0.975 0.3 0.025  1 0.3 0  1 0.3 0.025  0.625 0.325 0  0.625 0.325 0.025  0.65 0.325 0  0.65 0.325 0.025  0.675 0.325 0  0.675 0.325 0.025  0.7 0.325 0  0.7 0.325 0.025  0.725 0.325 0  0.725 0.325 0.025  0.75 0.325 0  0.75 0.325 0.025  0.775 0.325 0  0.775 0.325 0.025  0.8 0.325 0  0.8 0.325 0.025  0.825 0.325 0  0.825 0.325 0.025  0.85 0.325 0  0.85 0.325 0.025  0.875 0.325 0  0.875 0.325 0.025  0.9 0.325 0  0.9 0.325 0.025  0.925 0.325 0  0.925 0.325 0.025  0.95 0.325 0  0.95 0.325 0.025  0.975 0.325 0  0.975 0.325 0.025  1 0.325 0  1 0.325 0.025  0.65 0.35 0  0.65 0.35 0.025  0.625 0.35 0  0.625 0.35 0.025  0.675 0.35 0  0.675 0.35 0.025  0.7 0.35 0  0.7 0.35 0.025  0.725 0.35 0  0.725 0.35 0.025  0.75 0.35 0  0.75 0.35 0.025  0.775 0.35 0  0.775 0.35 0.025  0.8 0.35 0  0.8 0.35 0.025  0.825 0.35 0  0.825 0.35 0.025  0.85 0.35 0  0.85 0.35 0.025  0.875 0.35 0  0.875 0.35 0.025  0.9 0.35 0  0.9 0.35 0.025  0.925 0.35 0  0.925 0.35 0.025  0.95 0.35 0  0.95 0.35 0.025  0.975 0.35 0  0.975 0.35 0.025  1 0.35 0  1 0.35 0.025  0.65 0.375 0  0.65 0.375 0.025  0.675 0.375 0  0.675 0.375 0.025  0.7 0.375 0  0.7 0.375 0.025  0.725 0.375 0  0.725 0.375 0.025  0.75 0.375 0  0.75 0.375 0.025  0.775 0.375 0  0.775 0.375 0.025  0.8 0.375 0  0.8 0.375 0.025  0.825 0.375 0  0.825 0.375 0.025  0.85 0.375 0  0.85 0.375 0.025  0.875 0.375 0  0.875 0.375 0.025  0.9 0.375 0  0.9 0.375 0.025  0.925 0.375 0  0.925 0.375 0.025  0.95 0.375 0  0.95 0.375 0.025  0.975 0.375 0  0.975 0.375 0.025  1 0.375 0  1 0.375 0.025  0.675 0.4 0.025  0.7 0.4 0  0.7 0.4 0.025  0.725 0.4 0  0.725 0.4 0.025  0.75 0.4 0.025  0.775 0.4 0.025  0.8 0.4 0  0.8 0.4 0.025  0.825 0.4 0  0.825 0.4 0.025  0.85 0.4 0  0.85 0.4 0.025  0.875 0.4 0  0.875 0.4 0.025  0.9 0.4 0  0.9 0.4 0.025  0.925 0.4 0  0.925 0.4 0.025  0.95 0.4 0  0.95 0.4 0.025  0.975 0.4 0  0.975 0.4 0.025  1 0.4 0  1 0.4 0.025  0.725 0.425 0.025  0.75 0.425 0.025  0.825 0.425 0.025  0.85 0.425 0.025  0.875 0.425 0.025  0.9 0.425 0.025  0.925 0.425 0  0.925 0.425 0.025  0.95 0.425 0  0.95 0.425 0.025  0.975 0.425 0  0.975 0.425 0.025  1 0.425 0  1 0.425 0.025  0.95 0.45 0  0.95 0.45 0.025  0.975 0.45 0  0.975 0.45 0.025  1 0.45 0  1 0.45 0.025  1 0.475 0.025  0.525 0.025 0.05  0.525 0 0.05  0.5 0 0.05  0.5 0.025 0.05  0.55 0.025 0.05  0.55 0 0.05  0.575 0.025 0.
[...]
<PointData  Scalars="f_8"> 
<DataArray  type="Float64"  Name="f_8"  format="ascii">5.0000440433886348e+00  4.7504991114076836e+00  4.7505016606915644e+00  4.7505038085368172e+00  4.7505016606915627e+00  5.0000440554173036e+00  5.0000440554173062e+00  5.0000440634001855e+00  4.5009464746185150e+00  4.5009515571103673e+00  4.5009558424749789e+00  4.5009515571103673e+00  4.2513784939694919e+00  4.2513861000586743e+00  4.2513925170934401e+00  4.2513861000586735e+00  4.0017875571470354e+00  4.0017976702388562e+00  4.0018062084913852e+00  4.0017976702388554e+00  3.7521660985422662e+00  3.7521786928417611e+00  3.7521893355490108e+00  3.7521786928417598e+00  3.5025066256988882e+00  3.5025216630920126e+00  3.5025343847837229e+00  3.5025216630920117e+00  3.2528017548691159e+00  3.2528191807390980e+00  3.2528339440331546e+00  3.2528191807390967e+00  3.0030442587570860e+00  3.0030639964961554e+00  3.0030807479105963e+00  3.0030639964961559e+00  2.7532271301922990e+00  2.7532490740546431e+00  2.7532677385777737e+00  2.7532490740546436e+00  2.5033436664437563e+00  2.5033676722084732e+00  2.5033881462393626e+00  2.5033676722084728e+00  2.2533875803147385e+00  2.2534134529405758e+00  2.2534355950010059e+00  2.2534134529405763e+00  2.0033531463136582e+00  2.0033806232779763e+00  2.0034042415313404e+00  2.0033806232779754e+00  1.7532353935439489e+00  1.7532641216739322e+00  1.7532889566091536e+00  1.7532641216739329e+00  1.5030303623505132e+00  1.5030598642403925e+00  1.5030855635124125e+00  1.5030598642403927e+00  1.2527354508544559e+00  1.2527650733445670e+00  1.2527911526955053e+00  1.2527650733445672e+00  1.0023498936801247e+00  1.0023787224404790e+00  1.0024044987551282e+00  1.0023787224404792e+00  7.5187544568408715e-01  7.5190214814799972e-01  7.5192660702182734e-01  7.5190214814799972e-01  5.0131740375709199e-01  5.0133990167788445e-01  5.0136137710869899e-01  5.0133990167788445e-01  2.5068621321974832e-01  2.5070091685875001e-01  2.5071610005399930e-01  2.5070091685875001e-01  0.0000000000000000e+00  0.0000000000000000e+00  0.0000000000000000e+00  0.0000000000000000e+00  4.7505075088956570e+00  4.7505096970641834e+00  4.5009632289662180e+00  4.5009676002974572e+00  4.2514035681896472e+00  4.2514101218696236e+00  4.0018208883715172e+00  4.0018296217876088e+00  3.7522075903030330e+00  3.7522184976351451e+00  3.5025561370532947e+00  3.5025692073030052e+00  3.2528590857870401e+00  3.2528743001510572e+00  3.0031091309078430e+00  3.0031264593556997e+00  2.7532991618564115e+00  2.7533185587007911e+00  2.5034223396362703e+00  2.5034437377670411e+00  2.2534721971771599e+00  2.2534955004242856e+00  2.0034427700954960e+00  2.0034678427971624e+00  1.7533287664256512e+00  1.7533554184800708e+00  1.5031257866491148e+00  1.5031537505293311e+00  1.2528306089534349e+00  1.2528595006498153e+00  1.0024415590041740e+00  1.0024708021065800e+00  7.5195898871099054e-01  7.5198763996811302e-01  5.0138590201480193e-01  5.0141216805427991e-01  2.5072886026390107e-01  2.5074848823419665e-01  0.0000000000000000e+00  0.0000000000000000e+00  4.5009812176378166e+00  4.5009859554284084e+00  4.7505165117111208e+00  4.7505188798955515e+00  4.2514304883849627e+00  4.2514376008194095e+00  4.0018566500830888e+00  4.0018661435427569e+00  3.7522520585427723e+00  3.7522639395484703e+00  3.5026091187419031e+00  3.5026233922651993e+00  3.2529203121329844e+00  3.2529369793332603e+00  3.0031782342423172e+00  3.0031972894886736e+00  2.7533756454175919e+00  2.7533970723696046e+00  2.5035055380904541e+00  2.5035293044609674e+00  2.2535612245827732e+00  2.2535872749217063e+00  2.0035364503249316e+00  2.0035646955929889e+00  1.7534255383919930e+00  1.7534558398719684e+00  1.5032235725338179e+00  1.5032557148164813e+00  1.2529266276127391e+00  1.2529602683879146e+00  1.0025320600583800e+00  1.0025666253280148e+00  7.5203888456822643e-01  7.5207332017352313e-01  5.0144832579775955e-01  5.0148042139399962e-01  2.5076492902726011e-01  2.5078919529186283e-01  0.0000000000000000e+00  0.0000000000000000e+00  4.5010047192970726e+00  4.5010099416494098e+00  4.7505282596347111e+00  4.7505308663479031e+00  4.2514656542747389e+00  4.2514735033547248e+00  4.0019033341543189e+00  4.0019138255698872e+00  3.7523100449867450e+00  3.7523231977665916e+00  3.5026781034266476e+00  3.5026939384606872e+00  3.2529998777595690e+00  3.2530184156690525e+00  3.0032678178862859e+00  3.0032890761441200e+00  2.7534744965700195e+00  2.7534984855707196e+00  2.5036126645474965e+00  2.5036393821056309e+00  2.2536753224668868e+00  2.2537047458027408e+00  2.0036558130723230e+00  2.0036878865041059e+00  1.7535479377132295e+00  1.7535825525110291e+00  1.5033461025225654e+00  1.5033830614532426e+00  1.2530455029427996e+00  1.2530844526934337e+00  1.0026423658237806e+00  1.0026826563904621e+00  7.5213430412746551e-01  7.5217466561456137e-01  5.0152096499275478e-01  5.0155867255951958e-01  2.5080560864547230e-01  2.5083400842089676e-01  0.0000000000000000e+00  0.0000000000000000e+00  4.5010327331892173e+00  4.5010384982256708e+00  4.7505422453433583e+00  4.7505451192566817e+00  4.2515075657947010e+00  4.2515162388168655e+00  4.0019589326712124e+00  4.0019705380219790e+00  3.7523790229544502e+00  3.7523935913545357e+00  3.5027600328557313e+00  3.5027775998080442e+00  3.2530941789668391e+00  3.2531147825182689e+00  3.0033737190920924e+00  3.0033973967046830e+00  2.7535909824195843e+00  2.7536177665322197e+00  2.5037384110279470e+00  2.5037683225821921e+00  2.2538086150011587e+00  2.2538416536304036e+00  2.0037944439264677e+00  2.0038305723914847e+00  1.7536890786641912e+00  1.7537281968535205e+00  1.5034861500840409e+00  1.5035280490589022e+00  1.2531798989888119e+00  1.2532241745341175e+00  1.0027654122762319e+00  1.0028112901899120e+00  7.5223902958250055e-01  7.5228498017600121e-01  5.0159918947383331e-01  5.0164197547844747e-01  2.5084853448046496e-01  2.5088050036509074e-01  0.0000000000000000e+00  0.0000000000000000e+00  4.5010641886053397e+00  4.5010705230175434e+00  4.7505579271083080e+00  4.2515546205426240e+00  4.2515641571926910e+00  4.0020213079722362e+00  4.0020340789714579e+00  3.7524563157328403e+00  3.7524723620458809e+00  3.5028516882217775e+00  3.5028710578784650e+00  3.2531994540350286e+00  3.2532221995640191e+00  3.0034916368403595e+00  3.0035178115902736e+00  2.7537202739730309e+00  2.7537499267628260e+00  2.5038774444650427e+00  2.5039106116115097e+00  2.2539553086632922e+00  2.2539920017175703e+00  2.0039461625627886e+00  2.0039863487390956e+00  1.7538425122077763e+00  1.7538860818401221e+00  1.5036371787555034e+00  1.5036838886502497e+00  1.2533234573495466e+00  1.2533728268404591e+00  1.0028953835809860e+00  1.0029464910636574e+00  7.5234823841026133e-01  7.5239928785081767e-01  5.0167962739211580e-01  5.0172691219368815e-01  2.5089206737124098e-01  2.5092709334106295e-01  0.0000000000000000e+00  0.0000000000000000e+00  4.5010980113877963e+00  4.5011049210681371e+00  4.2516052138885403e+00  4.2516156223487194e+00  4.0020883267061240e+00  4.0021022725974120e+00  3.7525392648920559e+00  3.7525567976449907e+00  3.5029498928391902e+00  3.5029710705525341e+00  3.2533120198758625e+00  3.2533369062475019e+00  3.0036174011258794e+00  3.0036460609998494e+00  2.7538577450338280e+00  2.7538902378649550e+00  2.5040247293545268e+00  2.5040610994241717e+00  2.2541100282247384e+00  2.2541502896121348e+00  2.0041053546520882e+00  2.0041494674457945e+00  1.7540025264035126e+00  1.7540503577312201e+00  1.5037935711132651e+00  1.5038448287085189e+00  1.2534709035135030e+00  1.2535250168638825e+00  1.0030276457906151e+00  1.0030835398109554e+00  7.5245825061248062e-01  7.5251387614308163e-01  5.0175980761971684e-01  5.0181104401782795e-01  2.5093503534647726e-01  2.5097268990771077e-01  0.0000000000000000e+00  0.0000000000000000e+00  4.2516578012617439e+00  4.2516690665835863e+00  4.5011331655414732e+00  4.5011406410756356e+00  4.0021579424525093e+00  4.0021730414295451e+00  3.7526253326006933e+00  3.7526443212547731e+00  3.5030516330205614e+00  3.5030745769991092e+00  3.2534284095456258e+00  3.2534553804305979e+00  3.0037471239602000e+00  3.0037781939022086e+00  2.7539991317163550e+00  2.7540343655683839e+00  2.5041756881588957e+00  2.5042151317585675e+00  2.2542679667917209e+00  2.2543116291306990e+00  2.0042670956822692e+00  2.0043149210664901e+00  1.7541642231602019e+00  1.7542160463966452e+00  1.5039506340699609e+00  1.5040061056220375e+00  1.2536179583749056e+00  1.2536764133827356e+00  1.0031585569411661e+00  1.0032187711747134e+00  7.5256626438651997e-01  7.5262595769029494e-01  5.0183789852365179e-01  5.0189259135057618e-01  2.5097658127513578e-01  2.5101649799520753e-01  0.0000000000000000e+00  0.0000000000000000e+00  4.2517109384452212e+00  4.2517230280689553e+00  4.0022282483293479e+00  4.0022444550876823e+00  3.7527121653011193e+00  3.7527325500044477e+00  3.5031541309569523e+00  3.5031787644345274e+00  3.2535454516088569e+00  3.2535744103314990e+00  3.0038772813249950e+00  3.0039106410660765e+00  2.7541406115451612e+00  2.7541784381476182e+00  2.5043262701622755e+00  2.5043686059129988e+00  2.2544249347903196e+00  2.2544717779384240e+00  2.0044271683078563e+00  2.0044784415563743e+00  1.7543234910351688e+00  1.7543789916699866e+00  1.5041045157413935e+00  1.5041638338242229e+00  1.2537611945581093e+00  1.2538235723114568e+00  1.0032852728368529e+00  1.0033493469463914e+00  7.5267014349674843e-01  7.5273342793395059e-01  5.0191252964297461e-01  5.0197023646503802e-01  2.5101606920889580e-01  2.5105793460066284e-01  0.0000000000000000e+00  0.0000000000000000e+00  4.0022975086125046e+00  4.0023147599682449e+00  3.7527976305715089e+00  3.7528193293961438e+00  3.5032548846717759e+00  3.5032811048990107e+00  3.2536603102655679e+00  3.2536911307029097e+00  3.0040047496166040e+00  3.0040402466366660e+00  2.7542788312736661e+00  2.7543190682604410e+00  2.5044729645770261e+00  2.5045179765166972e+00  2.2545773513042229e+00  2.2546271219109375e+00  2.0045820245129584e+00  2.0046364515291084e+00  1.7544769318396687e+00  1.7545357729244904e+00  1.5042520935542307e+00  1.5043148788404774e+00  1.2538978899963695e+00  1.2539637738979743e+00  1.0034055805841942e+00  1.0034730735375412e+00  7.5276825689147486e-01  7.5283469215951360e-01  5.0198266950115911e-01  5.0204299551425258e-01  2.5105302361094356e-01  2.5109656659650809e-01  0.0000000000000000e+00  0.0000000000000000e+00  3.7528798344343248e+00  3.7529027489874989e+00  4.0023641748240122e+00  4.0023823940979435e+00  3.5033516844360859e+00  3.5033793695914826e+00  3.2537704981622060e+00  3.2538030330247141e+00  3.0041268114995305e+00  3.0041642707276113e+00  2.7544109018067173e+00  2.7544533438380867e+00  2.5046127800965614e+00  2.5046602301365244e+00  2.2547222037422121e+00  2.2547746288030930e+00  2.0047287215480338e+00  2.0047859930504877e+00  1.7546217708870573e+00  1.7546836070682179e+00  1.5043908604166867e+00  1.5044567343815514e+00  1.2540258970286455e+00  1.2540948826135063e+00  1.0035177640770894e+00  1.0035882593482919e+00  7.5285935923714475e-01  7.5292854063235193e-01  5.0204753991098516e-01  5.0211013149496087e-01  2.5108708792038104e-01  2.5113207138162735e-01  0.0000000000000000e+00  0.0000000000000000e+00  3.7529571245566604e+00  3.7529811443790839e+00  4.0024268903984153e+00  4.0024459908822285e+00  3.5034426126298244e+00  3.5034716271755717e+00  3.2538738706309536e+00  3.2539079577868670e+00  3.0042411418756436e+00  3.0042803729633154e+00  2.7545343730089114e+00  2.7545787999211173e+00  2.5047432056584134e+00  2.5047928424513244e+00  2.2548569921087784e+00  2.2549117882690464e+00  2.0048648483563416e+00  2.0049246491669699e+00  1.7547557661995554e+00  1.7548202523327892e+00  1.5045188202817530e+00  1.5045874122753204e+00  1.2541435315727345e+00  1.2542152310252896e+00  1.0036204975711946e+00  1.0036936041502833e+00  7.5294250147722663e-01  7.5301405691863676e-01  5.0210655424950967e-01  5.0217109269058857e-01  2.5111799512225275e-01  2.5116420923202532e-01  0.0000000000000000e+00  0.0000000000000000e+00  3.7530280837180179e+00  3.7530530897128678e+00  3.5035260325452802e+00  3.5035562313473481e+00  3.2539686080540426e+00  3.2540040753130888e+00  3.0043457818879706e+00  3.0043865845963089e+00  2.7546471974451725e+00  2.7546933801301390e+00  2.5048621622999478e+00  2.5049137274306132e+00  2.2549796680137923e+00  2.2550365477944787e+00  2.0049884519300134e+00  2.0050504668454807e+00  1.7548771241082166e+00  1.7549439202650396e+00  1.5046343970586911e+00  1.5047053478391301e+00  1.2542494817051399e+00  1.2543235252925407e+00  1.0037127620068724e+00  1.0037881132511004e+00  7.5301696316116340e-01  7.5309054939875952e-01  5.0215927191089438e-01  5.0222546774160393e-01  2.5114554616735318e-01  2.5119280309529679e-01  0.0000000000000000e+00  0.0000000000000000e+00  3.5036005704687407e+00  3.5036318019130439e+00  3.7530915170873289e+00  3.7531173841538057e+00  3.2540531914688398e+00  3.2540898601307990e+00  3.0044391067730905e+00  3.0044812748726466e+00  2.7547476893773242e+00  2.7547953939107228e+00  2.5049679526006008e+00  2.5050211847639789e+00  2.2550885745598390e+00  2.2551472503417411e+00  2.0050979686686734e+00  2.0051618859354838e+00  1.7549844244346438e+00  1.7550531984910989e+00  1.5047363574468120e+00  1.5048093204754274e+00  1.2543427332932653e+00  1.2544187689991131e+00  1.0037937792707108e+00  1.0038710306693908e+00  7.5308220070089404e-01  7.5315749934509224e-01  5.0220536403955385e-01  5.0227295206243283e-01  2.5116959377085485e-01  2.5121772341816373e-01  0.0000000000000000e+00  0.0000000000000000e+00  3.5036650944043948e+00  3.5036972026951592e+00  3.2541263752512100e+00  3.2541640626630532e+00  3.0045197917454809e+00  3.0045631157441677e+00  2.7548344833357095e+00  2.7548834737542158e+00  2.5050592118558637e+00  2.5051138495227936e+00  2.2551823906687511e+00  2.2552425770429463e+00  2.0051921632407925e+00  2.0052576763472212e+00  1.7550765562326431e+00  1.7551469848340522e+00  1.5048237468501611e+00  1.5048983881670124e+00  1.2544225100698483e+00  1.2545002021812999e+00  1.0038629605611145e+00  1.0039417869827145e+00  7.5313780750052162e-01  7.5321452114443999e-01  5.0224458740071143e-01  5.0231332233026715e-01  2.5119003005687529e-01  2.5123887655393062e-01  0.0000000000000000e+00  0.0000000000000000e+00  3.2542256810132373e+00  3.0045867788507143e+00  3.0046310478049847e+00  2.7549064951346156e+00  2.7549565351786138e+00  2.5051906464867097e+00  2.2553214967206285e+00  2.0052700759824065e+00  2.0053368842702404e+00  1.7551526639878809e+00  1.7552244324223611e+00  1.5048958370623657e+00  1.5049718342614113e+00  1.2544882258074719e+00  1.2545672528995124e+00  1.0039198659483681e+00  1.0039999586689485e+00  7.5318348315059458e-01  7.5326133168449694e-01  5.0227676432530166e-01  5.0234641694588589e-01  2.5120677706354377e-01  2.5125619583129472e-01  0.0000000000000000e+00  0.0000000000000000e+00  2.7550137412513673e+00  2.5052507505449655e+00  1.7552849050496686e+00  1.5050291250115397e+00  1.2546194992443107e+00  1.0040452366378430e+00  7.5321900973360423e-01  7.5329772686975471e-01  5.0230176734761078e-01  5.0237212108285789e-01  2.5121977945701252e-01  2.5126963468296692e-01  0.0000000000000000e+00  0.0000000000000000e+00  5.0231950759719024e-01  5.0239035539590027e-01  2.5122899901519835e-01  2.5127916143066731e-01  0.0000000000000000e+00  0.0000000000000000e+00  0.0000000000000000e+00  4.7505096970641807e+00  4.7505075088956534e+00  5.0000440679632643e+00  5.0000440730455180e+00  4.5009676002974537e+00  4.5009632289662163e+00  4.2514101218696219e+00  4.2514035681896454e+00  4.0018296217876097e+00  4.0018208883715154e+00  3.7522184976351469e+00  3.7522075903030316e+00  3.5025692073030075e+00  3.5025561370532960e+00  3.2528743001510576e+00  3.2528590857870396e+00  3.0031264593557001e+00  3.0031091309078422e+00  2.7533185587007911e+00  2.7532991618564115e+00  2.5034437377670429e+00  2.5034223396362716e+00  2.2534955004242874e+00  2.2534721971771607e+00  2.0034678427971633e+00  2.0034427700954960e+00  1.7533554184800715e+00  1.7533287664256521e+00  1.5031537505293313e+00  1.5031257866491150e+00  1.2528595006498149e+00  1.2528306089534349e+00  1.0024708021065805e+00  1.0024415590041740e+00  7.5198763996811335e-01  7.5195898871099098e-01  5.0141216805428002e-01  5.0138590201480193e-01  2.5074848823419665e-01  2.5072886026390112e-01  0.0000000000000000e+00  0.0000000000000000e+00  4.7505159039219675e+00  5.0000440760433777e+00  4.5009800068310888e+00  4.2514287168805369e+00  4.0018543840002758e+00  3.7522493909239341e+00  3.5026061739632022e+00  3.2529172518359570e+00  3.0031752651068984e+00  2.7533730291959406e+00  2.5035036044127033e+00  2.2535603870621519e+00  2.0035372262199531e+00  1.7534285709023250e+00  1.5032296508530314e+00  1.2529366874786849e+00  1.0025471090076712e+00  7.5205967407920604e-01  5.0147419619402145e-01  2.5078993578072561e-01  0.0000000000000000e+00  4.5009994146020906e+00  4.7505256046295470e+00  4.2514577972545151e+00  4.0018930774000925e+00  3.7522976038778779e+00  3.5026637666965481e+00  3.2529840215020127e+00  3.0032509235606377e+00  2.7534571736570110e+00  2.5035956784836979e+00  2.2536596281181582e+00  2.0036425927099568e+00  1.7535386387317755e+00  1.5033424600770187e+00  1.2530495058763160e+00  1.0026560522893506e+00  7.5215907660905468e-01  5.0155556468085327e-01  2.5084031532351025e-01  0.0000000000000000e+00  4.5010247106883412e+00  4.7505382358133561e+00  4.2514956896188920e+00  4.0019434517328749e+00  3.7523602871717388e+00  3.5027385088826408e+00  3.2530704706995675e+00  3.0033485934186848e+00  2.7535654005627102e+00  2.5037135653620601e+00  2.2537859699489813e+00  2.0037757764225672e+00  1.7536765063421469e+00  1.5034821182375557e+00  1.2531870571264170e+00  1.0027862147421569e+00  7.5227465778557456e-01  5.0164678954805209e-01  2.5089415128322634e-01  0.0000000000000000e+00  4.5010547306468105e+00  4.2515406458268084e+00  4.0020031637648916e+00  3.7524344876814468e+00  3.5028268197015673e+00  3.2531723708489766e+00  3.0034633773206854e+00  2.7536921240502279e+00  2.5038509761524206e+00  2.2539324179841072e+00  2.0039290978373656e+00  1.7538338728843295e+00  1.5036398422414217e+00  1.2533403423169016e+00  1.0029288496688868e+00  7.5239867179660880e-01  5.0174215041041925e-01  2.5094870297561622e-01  0.0000000000000000e+00  4.5010882979116884e+00  4.2515909028888936e+00  4.0020698587048980e+00  3.7525172526032358e+00  3.5029251422972227e+00  3.2532855567199408e+00  3.0035905014232549e+00  2.7538319691120616e+00  2.5040019553033357e+00  2.2540924782163461e+00  2.0040956004401012e+00  1.7540034471455190e+00  1.5038082105202808e+00  1.2535021202232282e+00  1.0030773385869605e+00  7.5252568877141346e-01  5.0183798913525846e-01  2.5100238449623008e-01  0.0000000000000000e+00  4.2516447401990725e+00  4.5011242617903280e+00  4.0021412467841797e+00  3.7526057253833818e+00  3.5030300587176972e+00  3.2534060593693304e+00  3.0037254640926583e+00  2.7539799316747957e+00  2.5041610441539151e+00  2.2542603105616137e+00  2.0042691713448040e+00  1.7541789999812005e+00  1.5039810954010178e+00  1.2536666528600484e+00  1.0032266861910419e+00  7.5265183254481050e-01  5.0193184353736053e-01  2.5105417852711281e-01  0.0000000000000000e+00  4.2517005251939244e+00  4.0022151634379100e+00  3.7526972195028439e+00  3.5031383757657175e+00  3.2535302015525636e+00  3.0038641368919210e+00  2.7541314789644908e+00  2.5043233712741597e+00  2.2544307953329592e+00  2.0044445643773039e+00  1.7543553182538418e+00  1.5041535177622849e+00  1.2538294338538272e+00  1.0033731164150408e+00  7.5277428950600778e-01  5.0202199299199957e-01  2.5110338997940329e-01  0.0000000000000000e+00  4.2517567457408569e+00  4.0022896111306112e+00  3.7527892682495345e+00  3.5032471805023144e+00  3.2536546557384525e+00  3.0040028205135072e+00  2.7542825969409508e+00  2.5044846826812543e+00  2.2545995348551191e+00  2.0046173591399263e+00  1.7545281060588465e+00  1.5043214772205953e+00  1.2539869434167448e+00  1.0035137679120374e+00  7.5289099139422022e-0