<?xml version="1.0"?>
<VTKFile type="UnstructuredGrid"  version="0.1"  >
<UnstructuredGrid>
<Piece  NumberOfPoints="7447" NumberOfCells="37513">
<Points>
<DataArray  type="Float64"  NumberOfComponents="3"  format="ascii">0.125 0.225 0  0.125 0.25 0  0.15 0.25 0  0.15 0.25 0.025  0.15 0.275 0  0.15 0.275 0.025  0.125 0.275 0  0.175 0.275 0  0.175 0.275 0.025  0.15 0.3 0  0.15 0.3 0.025  0.125 0.3 0  0.175 0.3 0  0.175 0.3 0.025  0.2 0.3 0  0.2 0.3 0.025  0.1 0.3 0  0.125 0.325 0  0.125 0.325 0.025  0.125 0.3 0.025  0.1 0.325 0  0.15 0.325 0  0.15 0.325 0.025  0.175 0.325 0  0.175 0.325 0.025  0.2 0.325 0  0.2 0.325 0.025  0.225 0.325 0  0.225 0.325 0.025  0.125 0.35 0  0.125 0.35 0.025  0.1 0.35 0  0.15 0.35 0  0.15 0.35 0.025  0.175 0.35 0  0.175 0.35 0.025  0.2 0.35 0  0.2 0.35 0.025  0.225 0.35 0  0.225 0.35 0.025  0.25 0.35 0  0.25 0.35 0.025  0.125 0.375 0  0.125 0.375 0.025  0.1 0.375 0  0.15 0.375 0  0.15 0.375 0.025  0.175 0.375 0  0.175 0.375 0.025  0.2 0.375 0  0.2 0.375 0.025  0.225 0.375 0  0.225 0.375 0.025  0.25 0.375 0  0.25 0.375 0.025  0.275 0.375 0  0.275 0.375 0.025  0.125 0.4 0  0.125 0.4 0.025  0.1 0.4 0  0.1 0.4 0.025  0.15 0.4 0  0.15 0.4 0.025  0.175 0.4 0  0.175 0.4 0.025  0.2 0.4 0  0.2 0.4 0.025  0.225 0.4 0  0.225 0.4 0.025  0.25 0.4 0  0.25 0.4 0.025  0.275 0.4 0  0.275 0.4 0.025  0.3 0.375 0  0.3 0.4 0  0.3 0.4 0.025  0.325 0.4 0  0.325 0.4 0.025  0.075 0.4 0  0.1 0.425 0  0.1 0.425 0.025  0.075 0.425 0  0.125 0.425 0  0.125 0.425 0.025  0.15 0.425 0  0.15 0.425 0.025  0.175 0.425 0  0.175 0.425 0.025  0.2 0.425 0  0.2 0.425 0.025  0.225 0.425 0  0.225 0.425 0.025  0.25 0.425 0  0.25 0.425 0.025  0.275 0.425 0  0.275 0.425 0.025  0.3 0.425 0  0.3 0.425 0.025  0.325 0.425 0  0.325 0.425 0.025  0.35 0.425 0  0.35 0.425 0.025  0.1 0.45 0  0.1 0.45 0.025  0.075 0.45 0  0.125 0.45 0  0.125 0.45 0.025  0.15 0.45 0  0.15 0.45 0.025  0.175 0.45 0  0.175 0.45 0.025  0.2 0.45 0  0.2 0.45 0.025  0.225 0.45 0  0.225 0.45 0.025  0.25 0.45 0  0.25 0.45 0.025  0.275 0.45 0  0.275 0.45 0.025  0.3 0.45 0  0.3 0.45 0.025  0.325 0.45 0  0.325 0.45 0.025  0.35 0.45 0  0.35 0.45 0.025  0.375 0.45 0  0.375 0.45 0.025  0.1 0.475 0  0.1 0.475 0.025  0.075 0.475 0  0.125 0.475 0  0.125 0.475 0.025  0.15 0.475 0  0.15 0.475 0.025  0.175 0.475 0  0.175 0.475 0.025  0.2 0.475 0  0.2 0.475 0.025  0.225 0.475 0  0.225 0.475 0.025  0.25 0.475 0  0.25 0.475 0.025  0.275 0.475 0  0.275 0.475 0.025  0.3 0.475 0  0.3 0.475 0.025  0.325 0.475 0  0.325 0.475 0.025  0.35 0.475 0  0.35 0.475 0.025  0.375 0.475 0  0.375 0.475 0.025  0.4 0.475 0  0.4 0.475 0.025  0.1 0.5 0  0.1 0.5 0.025  0.075 0.5 0  0.125 0.5 0  0.125 0.5 0.025  0.15 0.5 0  0.15 0.5 0.025  0.175 0.5 0  0.175 0.5 0.025  0.2 0.5 0  0.2 0.5 0.025  0.225 0.5 0  0.225 0.5 0.025  0.25 0.5 0  0.25 0.5 0.025  0.275 0.5 0  0.275 0.5 0.025  0.3 0.5 0  0.3 0.5 0.025  0.325 0.5 0  0.325 0.5 0.025  0.35 0.5 0  0.35 0.5 0.025  0.375 0.5 0  0.375 0.5 0.025  0.4 0.5 0  0.4 0.5 0.025  0.1 0.525 0  0.1 0.525 0.025  0.075 0.525 0  0.125 0.525 0  0.125 0.525 0.025  0.15 0.525 0  0.15 0.525 0.025  0.175 0.525 0  0.175 0.525 0.025  0.2 0.525 0  0.2 0.525 0.025  0.225 0.525 0  0.225 0.525 0.025  0.25 0.525 0  0.25 0.525 0.025  0.275 0.525 0  0.275 0.525 0.025  0.3 0.525 0  0.3 0.525 0.025  0.325 0.525 0  0.325 0.525 0.025  0.35 0.525 0  0.35 0.525 0.025  0.375 0.525 0  0.375 0.525 0.025  0.4 0.525 0  0.4 0.525 0.025  0.425 0.525 0  0.425 0.525 0.025  0.1 0.55 0  0.1 0.55 0.025  0.125 0.55 0  0.125 0.55 0.025  0.15 0.55 0  0.15 0.55 0.025  0.175 0.55 0  0.175 0.55 0.025  0.2 0.55 0  0.2 0.55 0.025  0.225 0.55 0  0.225 0.55 0.025  0.25 0.55 0  0.25 0.55 0.025  0.275 0.55 0  0.275 0.55 0.025  0.3 0.55 0  0.3 0.55 0.025  0.325 0.55 0  0.325 0.55 0.025  0.35 0.55 0  0.35 0.55 0.025  0.375 0.55 0  0.375 0.55 0.025  0.4 0.55 0  0.4 0.55 0.025  0.425 0.55 0  0.425 0.55 0.025  0.125 0.575 0  0.125 0.575 0.025  0.1 0.575 0  0.1 0.575 0.025  0.15 0.575 0  0.15 0.575 0.025  0.175 0.575 0  0.175 0.575 0.025  0.2 0.575 0  0.2 0.575 0.025  0.225 0.575 0  0.225 0.575 0.025  0.25 0.575 0  0.25 0.575 0.025  0.275 0.575 0  0.275 0.575 0.025  0.3 0.575 0  0.3 0.575 0.025  0.325 0.575 0  0.325 0.575 0.025  0.35 0.575 0  0.35 0.575 0.025  0.375 0.575 0  0.375 0.575 0.025  0.4 0.575 0  0.4 0.575 0.025  0.425 0.575 0  0.425 0.575 0.025  0.45 0.575 0  0.45 0.575 0.025  0.125 0.6 0  0.125 0.6 0.025  0.15 0.6 0  0.15 0.6 0.025  0.175 0.6 0  0.175 0.6 0.025  0.2 0.6 0  0.2 0.6 0.025  0.225 0.6 0  0.225 0.6 0.025  0.25 0.6 0  0.25 0.6 0.025  0.275 0.6 0  0.275 0.6 0.025  0.3 0.6 0  0.3 0.6 0.025  0.325 0.6 0  0.325 0.6 0.025  0.35 0.6 0  0.35 0.6 0.025  0.375 0.6 0  0.375 0.6 0.025  0.4 0.6 0  0.4 0.6 0.025  0.425 0.6 0  0.425 0.6 0.025  0.45 0.6 0  0.45 0.6 0.025  0.475 0.6 0  0.475 0.6 0.025  0.15 0.625 0  0.15 0.625 0.025  0.125 0.625 0  0.125 0.625 0.025  0.175 0.625 0  0.175 0.625 0.025  0.2 0.625 0  0.2 0.625 0.025  0.225 0.625 0  0.225 0.625 0.025  0.25 0.625 0  0.25 0.625 0.025  0.275 0.625 0  0.275 0.625 0.025  0.3 0.625 0  0.3 0.625 0.025  0.325 0.625 0  0.325 0.625 0.025  0.35 0.625 0  0.35 0.625 0.025  0.375 0.625 0  0.375 0.625 0.025  0.4 0.625 0  0.4 0.625 0.025  0.425 0.625 0  0.425 0.625 0.025  0.45 0.625 0  0.45 0.625 0.025  0.475 0.625 0  0.475 0.625 0.025  0.5 0.625 0  0.5 0.625 0.025  0.15 0.65 0  0.15 0.65 0.025  0.125 0.65 0  0.175 0.65 0  0.175 0.65 0.025  0.2 0.65 0  0.2 0.65 0.025  0.225 0.65 0  0.225 0.65 0.025  0.25 0.65 0  0.25 0.65 0.025  0.275 0.65 0  0.275 0.65 0.025  0.3 0.65 0  0.3 0.65 0.025  0.325 0.65 0  0.325 0.65 0.025  0.35 0.65 0  0.35 0.65 0.025  0.375 0.65 0  0.375 0.65 0.025  0.4 0.65 0  0.4 0.65 0.025  0.425 0.65 0  0.425 0.65 0.025  0.45 0.65 0  0.45 0.65 0.025  0.475 0.65 0  0.475 0.65 0.025  0.5 0.65 0  0.5 0.65 0.025  0.15 0.675 0  0.15 0.675 0.025  0.125 0.675 0  0.175 0.675 0  0.175 0.675 0.025  0.2 0.675 0  0.2 0.675 0.025  0.225 0.675 0  0.225 0.675 0.025  0.25 0.675 0  0.25 0.675 0.025  0.275 0.675 0  0.275 0.675 0.025  0.3 0.675 0  0.3 0.675 0.025  0.325 0.675 0  0.325 0.675 0.025  0.35 0.675 0  0.35 0.675 0.025  0.375 0.675 0  0.375 0.675 0.025  0.4 0.675 0  0.4 0.675 0.025  0.425 0.675 0  0.425 0.675 0.025  0.45 0.675 0  0.45 0.675 0.025  0.475 0.675 0  0.475 0.675 0.025  0.5 0.675 0  0.5 0.675 0.025  0.15 0.7 0  0.15 0.7 0.025  0.175 0.7 0  0.175 0.7 0.025  0.2 0.7 0  0.2 0.7 0.025  0.225 0.7 0  0.225 0.7 0.025  0.25 0.7 0  0.25 0.7 0.025  0.275 0.7 0  0.275 0.7 0.025  0.3 0.7 0  0.3 0.7 0.025  0.325 0.7 0  0.325 0.7 0.025  0.35 0.7 0  0.35 0.7 0.025  0.375 0.7 0  0.375 0.7 0.025  0.4 0.7 0  0.4 0.7 0.025  0.425 0.7 0  0.425 0.7 0.025  0.45 0.7 0  0.45 0.7 0.025  0.475 0.7 0  0.475 0.7 0.025  0.5 0.7 0  0.5 0.7 0.025  0.525 0.675 0  0.525 0.7 0  0.525 0.7 0.025  0.55 0.7 0  0.55 0.7 0.025  0.175 0.725 0  0.175 0.725 0.025  0.15 0.725 0  0.15 0.725 0.025  0.2 0.725 0  0.2 0.725 0.025  0.225 0.725 0  0.225 0.725 0.025  0.25 0.725 0  0.25 0.725 0.025  0.275 0.725 0  0.275 0.725 0.025  0.3 0.725 0  0.3 0.725 0.025  0.325 0.725 0  0.325 0.725 0.025  0.35 0.725 0  0.35 0.725 0.025  0.375 0.725 0  0.375 0.725 0.025  0.4 0.725 0  0.4 0.725 0.025  0.425 0.725 0  0.425 0.725 0.025  0.45 0.725 0  0.45 0.725 0.025  0.475 0.725 0  0.475 0.725 0.025  0.5 0.725 0  0.5 0.725 0.025  0.525 0.725 0  0.525 0.725 0.025  0.55 0.725 0  0.55 0.725 0.025  0.575 0.725 0  0.575 0.725 0.025  0.175 0.75 0  0.175 0.75 0.025  0.15 0.75 0  0.2 0.75 0  0.2 0.75 0.025  0.225 0.75 0  0.225 0.75 0.025  0.25 0.75 0  0.25 0.75 0.025  0.275 0.75 0  0.275 0.75 0.025  0.3 0.75 0  0.3 0.75 0.025  0.325 0.75 0  0.325 0.75 0.025  0.35 0.75 0  0.35 0.75 0.025  0.375 0.75 0  0.375 0.75 0.025  0.4 0.75 0  0.4 0.75 0.025  0.425 0.75 0  0.425 0.75 0.025  0.45 0.75 0  0.45 0.75 0.025  0.475 0.75 0  0.475 0.75 0.025  0.5 0.75 0  0.5 0.75 0.025  0.525 0.75 0  0.525 0.75 0.025  0.55 0.75 0  0.55 0.75 0.025  0.575 0.75 0  0.575 0.75 0.025  0.6 0.75 0.025  0.175 0.775 0  0.175 0.775 0.025  0.15 0.775 0  0.2 0.775 0  0.2 0.775 0.025  0.225 0.775 0  0.225 0.775 0.025  0.25 0.775 0  0.25 0.775 0.025  0.275 0.775 0  0.275 0.775 0.025  0.3 0.775 0  0.3 0.775 0.025  0.325 0.775 0  0.325 0.775 0.025  0.35 0.775 0  0.35 0.775 0.025  0.375 0.775 0  0.375 0.775 0.025  0.4 0.775 0  0.4 0.775 0.025  0.425 0.775 0  0.425 0.775 0.025  0.45 0.775 0  0.45 0.775 0.025  0.475 0.775 0  0.475 0.775 0.025  0.5 0.775 0  0.5 0.775 0.025  0.525 0.775 0  0.525 0.775 0.025  0.55 0.775 0  0.55 0.775 0.025  0.575 0.775 0  0.575 0.775 0.025  0.6 0.775 0.025  0.6 0.775 0  0.175 0.8 0  0.175 0.8 0.025  0.15 0.8 0  0.2 0.8 0  0.2 0.8 0.025  0.225 0.8 0  0.225 0.8 0.025  0.25 0.8 0  0.25 0.8 0.025  0.275 0.8 0  0.275 0.8 0.025  0.3 0.8 0  0.3 0.8 0.025  0.325 0.8 0  0.325 0.8 0.025  0.35 0.8 0  0.35 0.8 0.025  0.375 0.8 0  0.375 0.8 0.025  0.4 0.8 0  0.4 0.8 0.025  0.425 0.8 0  0.425 0.8 0.025  0.45 0.8 0  0.45 0.8 0.025  0.475 0.8 0  0.475 0.8 0.025  0.5 0.8 0  0.5 0.8 0.025  0.525 0.8 0  0.525 0.8 0.025  0.55 0.8 0  0.55 0.8 0.025  0.575 0.8 0  0.575 0.8 0.025  0.6 0.8 0  0.6 0.8 0.025  0.625 0.8 0  0.625 0.8 0.025  0.175 0.825 0  0.175 0.825 0.025  0.15 0.825 0  0.2 0.825 0  0.2 0.825 0.025  0.225 0.825 0  0.225 0.825 0.025  0.25 0.825 0  0.25 0.825 0.025  0.275 0.825 0  0.275 0.825 0.025  0.3 0.825 0  0.3 0.825 0.025  0.325 0.825 0  0.325 0.825 0.025  0.35 0.825 0  0.35 0.825 0.025  0.375 0.825 0  0.375 0.825 0.025  0.4 0.825 0  0.4 0.825 0.025  0.425 0.825 0  0.425 0.825 0.025  0.45 0.825 0  0.45 0.825 0.025  0.475 0.825 0  0.475 0.825 0.025  0.5 0.825 0  0.5 0.825 0.025  0.525 0.825 0  0.525 0.825 0.025  0.55 0.825 0  0.55 0.825 0.025  0.575 0.825 0  0.575 0.825 0.025  0.6 0.825 0  0.6 0.825 0.025  0.625 0.825 0  0.625 0.825 0.025  0.65 0.825 0  0.65 0.825 0.025  0.175 0.85 0  0.175 0.85 0.025  0.2 0.85 0  0.2 0.85 0.025  0.225 0.85 0  0.225 0.85 0.025  0.25 0.85 0  0.25 0.85 0.025  0.275 0.85 0  0.275 0.85 0.025  0.3 0.85 0  0.3 0.85 0.025  0.325 0.85 0  0.325 0.85 0.025  0.35 0.85 0  0.35 0.85 0.025  0.375 0.85 0  0.375 0.85 
[...]
<PointData  Scalars="f_8"> 
<DataArray  type="Float64"  Name="f_8"  format="ascii">8.7463004904751038e+00  8.7461632582901476e+00  8.4958141647452639e+00  8.4957509798421498e+00  8.4956746724944843e+00  8.4956083716267798e+00  8.7460346207612893e+00  8.2454477649825080e+00  8.2453855849171145e+00  8.4955458780389392e+00  8.4954768361233040e+00  8.7459162654282618e+00  8.2453128326185006e+00  8.2452479791340423e+00  7.9952068463167656e+00  7.9951467396542615e+00  8.9964331297914590e+00  8.7458095062171317e+00  8.7457348812249904e+00  8.7458440027935378e+00  8.9963402003119537e+00  8.4954293602543309e+00  8.4953579399727008e+00  8.2451904139429928e+00  8.2451232301366684e+00  7.9950820740004360e+00  7.9950197327283767e+00  7.7450932044215470e+00  7.7450360449799671e+00  8.7457153581668283e+00  8.7456387256232642e+00  8.9962584483885593e+00  8.4953263540318353e+00  8.4952529046976348e+00  8.2450819313169923e+00  8.2450127519423919e+00  7.9949712513906226e+00  7.9949069896626854e+00  7.7449828809949466e+00  7.7449239073508522e+00  7.4951052305547607e+00  7.4950517366722069e+00  8.7456345975973733e+00  8.7455562954204620e+00  8.9961884624161854e+00  8.4952378145914604e+00  8.4951626724067832e+00  8.2449884969001879e+00  8.2449176474882755e+00  7.9948756155672189e+00  7.9948097419324604e+00  7.7448874988600833e+00  7.7448269982759674e+00  7.4950122940071395e+00  7.4949573782228152e+00  7.2452382428643283e+00  7.2451890027037047e+00  8.7455678100902645e+00  8.7454881614581268e+00  8.9961306813759609e+00  8.9960498153066428e+00  8.4951644699621305e+00  8.4950879591480906e+00  8.2449109665948086e+00  8.2448387636551974e+00  7.9947961271799022e+00  7.9947289440165674e+00  7.7448080941359576e+00  7.7447463502470386e+00  7.4949348056786880e+00  7.4948787296697468e+00  7.2451642858350072e+00  7.2451139810774503e+00  6.9955538401165924e+00  6.9954848130766161e+00  6.9954403018989986e+00  6.7458850093106442e+00  6.7458462636210479e+00  9.2468599547674177e+00  8.9960854262953909e+00  8.9960035806752270e+00  9.2468237055062836e+00  8.7455154282322347e+00  8.7454347440375226e+00  8.4951068629826239e+00  8.4950292974559396e+00  8.2448499840676419e+00  8.2447767360087187e+00  7.9947335143669003e+00  7.9946653181361595e+00  7.7447454578232229e+00  7.7446827503501980e+00  7.4948735944078049e+00  7.4948166176591240e+00  7.2451057812814987e+00  7.2450546486962679e+00  6.9954301296939789e+00  6.9953848710276878e+00  6.7458350997342729e+00  6.7457956922360029e+00  6.4963095397062274e+00  6.4962759302577657e+00  8.9960529242048413e+00  8.9959703850446395e+00  9.2467977019991725e+00  8.7454777606507808e+00  8.7453963421173668e+00  8.4950653840278640e+00  8.4949870694160818e+00  8.2448060155563905e+00  8.2447320240798589e+00  7.9946883080339832e+00  7.9946193900966076e+00  7.7447001701274507e+00  7.7446367751953540e+00  7.4948292714660862e+00  7.4947716511895477e+00  7.2450633517412220e+00  7.2450116269207951e+00  6.9953904035769181e+00  6.9953446094544045e+00  6.7457987715171868e+00  6.7457588893350193e+00  6.4962771941494548e+00  6.4962431736163717e+00  6.2468148072306242e+00  6.2467865827385136e+00  8.9960333257326823e+00  8.9959503714927855e+00  9.2467820441132176e+00  8.7454550134945244e+00  8.7453731548748337e+00  8.4950402954456656e+00  8.4949615313081299e+00  8.2447793761404178e+00  8.2447049379425685e+00  7.9946608687956822e+00  7.9945915166060599e+00  7.7446726269943857e+00  7.7446088178685111e+00  7.4948022557855802e+00  7.4947442472684793e+00  7.2450374255344432e+00  7.2449853429356379e+00  6.9953660584053141e+00  6.9953199403506465e+00  6.7457764299468490e+00  6.7457362601617756e+00  6.4962572129333074e+00  6.4962229429009408e+00  6.2467974814676159e+00  6.2467690468092130e+00  5.9973866875963697e+00  5.9973640199899299e+00  8.9960267171346064e+00  8.9959436217253206e+00  9.2467767888772858e+00  8.7454473051908188e+00  8.7453652964991591e+00  8.4950317484542204e+00  8.4949528306222177e+00  8.2447702480447163e+00  8.2446956567063978e+00  7.9946514059034657e+00  7.9945819044431881e+00  7.7446630589172543e+00  7.7445991070096891e+00  7.4947927920002044e+00  7.4947346492369000e+00  7.2450282535304948e+00  7.2449760467959283e+00  6.9953573430585827e+00  6.9953111121679949e+00  6.7457683137912721e+00  6.7457280433483655e+00  6.4962498170451539e+00  6.4962154591646302e+00  6.2467909067174698e+00  6.2467623974608246e+00  5.9973810160669290e+00  5.9973582874076925e+00  8.9960331272777303e+00  8.9959501630233287e+00  9.2467819556665756e+00  8.7454546750389017e+00  8.7453728047973449e+00  8.4950397930219523e+00  8.4949610159991487e+00  8.2447786913957533e+00  8.2447042393734957e+00  7.9946599884306284e+00  7.9945906217740932e+00  7.7446715421163326e+00  7.7446077181444206e+00  7.4948009612358062e+00  7.4947429377205976e+00  7.2450359192372442e+00  7.2449838216781499e+00  6.9953643407752963e+00  6.9953182079518896e+00  6.7457745033785157e+00  6.7457343191362567e+00  6.4962550813869244e+00  6.4962207972985624e+00  6.2467951501572738e+00  6.2467667019072293e+00  5.9973841627804410e+00  5.9973614820875660e+00  5.7480119077924732e+00  5.7479949310625891e+00  8.9960525298714664e+00  8.9959699704577680e+00  8.7454770859564839e+00  8.7453956439404799e+00  8.4950643810333446e+00  8.4949860404121811e+00  8.2448046476809385e+00  8.2447306283283428e+00  7.9946865488862260e+00  7.9946176018077626e+00  7.7446980021697067e+00  7.7446345773635796e+00  7.4948266846337690e+00  7.4947690342069029e+00  7.2450603421152096e+00  7.2450085872481802e+00  6.9953869721806665e+00  6.9953411484212555e+00  6.7457949232855752e+00  6.7457550121135021e+00  6.4962729370955667e+00  6.4962388883953608e+00  6.2468101518205916e+00  6.2467819001066109e+00  5.9973960786647131e+00  5.9973735548715315e+00  5.7480205597435035e+00  5.7480036997713233e+00  8.7455144214768978e+00  8.7454337014510024e+00  8.9960848410336087e+00  8.9960029644604447e+00  8.4951053628342716e+00  8.4950277576886695e+00  8.2448479359902436e+00  8.2447746455442399e+00  7.9947308793127014e+00  7.9946626388502615e+00  7.7447422101209389e+00  7.7446794573827216e+00  7.4948697196041660e+00  7.4948126972476254e+00  7.2451012740854512e+00  7.2450500961197983e+00  6.9954249921297080e+00  6.9953796887650883e+00  6.7458293395698306e+00  6.7457898884039666e+00  6.4963031691924389e+00  6.4962695173616938e+00  6.2468357226765274e+00  6.2468078028096770e+00  5.9974166066447374e+00  5.9973943484286050e+00  5.7480357509596978e+00  5.7480190895031074e+00  5.4986833549149940e+00  5.4986722367024194e+00  8.7455664768784764e+00  8.7454867793090454e+00  8.4951624770427685e+00  8.4950859122528968e+00  8.2449082419434188e+00  8.2448359814050569e+00  7.9947926197978418e+00  7.9947253766835917e+00  7.7448037710263753e+00  7.7447419659392214e+00  7.4949296488034323e+00  7.4948735112795397e+00  7.2451582892547952e+00  7.2451079234241291e+00  6.9954779804117679e+00  6.9954334091994221e+00  6.7458773516034123e+00  6.7458385473672617e+00  6.4963454096287876e+00  6.4963123158458043e+00  6.2468715389145295e+00  6.2468440857450238e+00  5.9974454771593768e+00  5.9974235926917290e+00  5.7480572742823375e+00  5.7480408926390796e+00  5.4986972400556571e+00  5.4986863071474987e+00  5.2493558841740935e+00  5.2493503616266830e+00  8.4952353332993660e+00  8.4951601217500858e+00  8.7456329441047895e+00  8.7455545788254874e+00  8.2449850990317142e+00  8.2449141758554241e+00  7.9948712392129506e+00  7.9948052890653907e+00  7.7448821048508441e+00  7.7448215264217088e+00  7.4950058618420652e+00  7.4949508680554677e+00  7.2452307669489855e+00  7.2451814495706088e+00  6.9955453264729615e+00  6.9955016994333343e+00  6.7459383787098890e+00  6.7459004080028890e+00  6.4963991259458496e+00  6.4963667506942864e+00  6.2469171326505091e+00  6.2468902801543917e+00  5.9974823008799847e+00  5.9974608974395585e+00  5.7480848302867553e+00  5.7480688089722127e+00  5.4987151677712269e+00  5.4987044739178916e+00  5.2493639502473624e+00  5.2493585451946210e+00  5.0000219429645396e+00  5.0000218063751625e+00  8.4953233874087886e+00  8.4952498519765545e+00  8.7457133898882589e+00  8.2450778619333072e+00  8.2450085914095173e+00  7.9949660078900280e+00  7.9949016520339153e+00  7.7449764195979496e+00  7.7449173505920976e+00  7.4950975297767801e+00  7.4950439407185367e+00  7.2453178682525960e+00  7.2452698363805643e+00  6.9956262084638281e+00  6.9955837373376912e+00  6.7460116419777112e+00  6.7459746904230968e+00  6.4964636059501100e+00  6.4964321083317982e+00  6.2469718794436915e+00  6.2469457600625073e+00  5.9975265589776150e+00  5.9975057423666822e+00  5.7481180201783264e+00  5.7481024384564829e+00  5.4987368701440973e+00  5.4987264681933752e+00  5.2493738936672374e+00  5.2493686326426454e+00  5.0000199955038491e+00  5.0000198550045303e+00  8.4954259080889756e+00  8.4953543832878164e+00  8.7458072262064537e+00  8.2451856712060962e+00  8.2451183773754586e+00  7.9950759618915841e+00  7.9950135076273359e+00  7.7450856765975837e+00  7.7450284032837100e+00  7.4952035725611426e+00  7.4951516506609401e+00  7.2454185064362893e+00  7.2453719969483004e+00  6.9957195671400925e+00  6.9956784623252943e+00  6.7460961418623748e+00  6.7460603929925309e+00  6.4965379390388724e+00  6.4965074756891923e+00  6.2470349832290575e+00  6.2470097268801608e+00  5.9975775914698257e+00  5.9975574651694163e+00  5.7481563373383917e+00  5.7481412725591730e+00  5.4987620068483354e+00  5.4987519482909795e+00  5.2493855489572931e+00  5.2493804577922969e+00  5.0000180226073061e+00  5.0000178784738232e+00  8.4955419342972558e+00  8.4954727673843866e+00  8.2453074086420894e+00  8.2452424245086124e+00  7.9951998585429118e+00  7.9951396186219252e+00  7.7452085480120498e+00  7.7451533590808648e+00  7.4953226198617369e+00  7.4952726275293173e+00  7.2455313119472118e+00  7.2454865598711500e+00  6.9958240754700070e+00  6.9957845442707409e+00  6.7461906325166137e+00  6.7461562660564676e+00  6.4966209951190246e+00  6.4965917186113176e+00  6.2471054595427846e+00  6.2470811922103415e+00  5.9976345844042980e+00  5.9976152483998941e+00  5.7481991581168606e+00  5.7481846848104352e+00  5.4987901592513095e+00  5.4987804936068514e+00  5.2493987122066619e+00  5.2493938157221018e+00  5.0000160398448914e+00  5.0000158923580029e+00  4.7506505416827975e+00  4.7506334142902897e+00  4.7506380148304412e+00  4.5012421068316959e+00  4.5012514736006155e+00  8.2454416425266555e+00  8.2453793092306817e+00  8.4956702218655877e+00  8.4956037730975318e+00  7.9953361230456474e+00  7.9952784140142583e+00  7.7453433669245824e+00  7.7452905512668320e+00  7.4954529660538096e+00  7.4954051631311245e+00  7.2456545930984531e+00  7.2456118289405076e+00  6.9959381052711977e+00  6.9959003492622154e+00  6.7462935942346007e+00  6.7462607836231268e+00  6.4967114024629478e+00  6.4966834590754008e+00  6.2471821182599365e+00  6.2471589600690018e+00  5.9976965569124578e+00  5.9976781061170623e+00  5.7482457326749898e+00  5.7482319213512145e+00  5.4988208246122454e+00  5.4988115986218391e+00  5.2494131383211018e+00  5.2494084599232602e+00  5.0000140649442466e+00  5.0000139143935378e+00  4.7506150385241401e+00  4.7506194148214762e+00  4.5012074925395300e+00  4.5012164134129957e+00  4.2517828163700742e+00  4.2517963174841080e+00  8.2455865621665811e+00  8.2455272266226203e+00  8.4958091779957048e+00  7.9954827863709941e+00  7.9954279253148828e+00  7.7454880709358696e+00  7.7454379138636504e+00  7.4955925208704954e+00  7.4955471606408386e+00  7.2457862942795552e+00  7.2457457400633754e+00  6.9960596928580578e+00  6.9960239041313041e+00  6.7464032059904522e+00  6.7463721149580813e+00  6.4968075263566956e+00  6.4967810530617225e+00  6.2472635474836649e+00  6.2472416101520079e+00  5.9977623494943035e+00  5.9977448716920643e+00  5.7482951769216637e+00  5.7482820925211024e+00  5.4988534110789038e+00  5.4988446676712615e+00  5.2494285386751818e+00  5.2494240998398087e+00  5.0000121178987458e+00  5.0000119645859673e+00  4.7505957429164312e+00  4.7505998740947177e+00  4.5011710075872511e+00  4.5011794402237468e+00  4.2517294691170049e+00  4.2517422374899203e+00  4.0022797666428680e+00  8.2457399014843844e+00  8.2456839117620753e+00  8.4959567821522946e+00  7.9956374153971810e+00  7.9955857144394660e+00  7.7456401411520233e+00  7.7455929185156966e+00  7.4957387582006429e+00  7.4956960815099247e+00  7.2459239544972318e+00  7.2458858181635781e+00  6.9961865065721174e+00  6.9961528625960065e+00  6.7465173208157090e+00  6.7464880988137699e+00  6.4969074510238514e+00  6.4968825715483316e+00  6.2473481007217417e+00  6.2473274842785793e+00  5.9978306152716572e+00  5.9978141885028258e+00  5.7483464668541666e+00  5.7483341667965515e+00  5.4988872343543678e+00  5.4988790113509669e+00  5.2494445795934874e+00  5.2494403992213368e+00  5.0000102210128619e+00  5.0000100652541724e+00  4.7505759057294501e+00  4.7505797735172024e+00  4.5011333807793044e+00  4.5011412879770036e+00  4.2516743643171093e+00  4.2516863431313698e+00  4.0022066152952309e+00  4.0021905175320169e+00  8.2458988524891339e+00  8.2458465498949387e+00  8.4961104922790849e+00  7.9957970376533165e+00  7.9957487953247632e+00  7.7457965399924653e+00  7.7457525094859125e+00  7.4958886670407789e+00  7.4958488939844639e+00  7.2460646704171587e+00  7.2460291381732818e+00  6.9963158202260427e+00  6.9962844770145765e+00  6.7466334477024716e+00  6.7466062239648306e+00  6.4970089680462619e+00  6.4969857878450004e+00  6.2474338900445172e+00  6.2474146787045539e+00  5.9978998163533355e+00  5.9978845056631531e+00  5.7483984368949956e+00  5.7483869686733389e+00  5.4989215170812411e+00  5.4989138456089828e+00  5.2494608821727962e+00  5.2494569758012180e+00  5.0000083988662354e+00  5.0000082409926749e+00  4.7505559550778385e+00  4.7505595445981061e+00  4.5010954388278392e+00  4.5011027901148113e+00  4.2516187170968216e+00  4.2516298595038524e+00  4.0021176155193858e+00  4.0021325923561797e+00  3.7525838997977043e+00  3.7526027666656265e+00  8.2460599714736702e+00  8.2460116778592099e+00  8.4962671365028370e+00  7.9959580654182885e+00  7.9959135537340442e+00  7.7459536536196989e+00  7.7459130423962383e+00  7.4960387107420452e+00  7.4960020292798006e+00  7.2462050698699247e+00  7.2461722960367654e+00  6.9964444979206002e+00  6.9964155811982254e+00  6.7467487448124643e+00  6.7467236208340129e+00  6.4971095753124599e+00  6.4970881753088658e+00  6.2475187884992307e+00  6.2475010455941993e+00  5.9979682278590634e+00  5.9979540813460588e+00  5.7484497840833173e+00  5.7484391823623904e+00  5.4989553921523457e+00  5.4989482947390291e+00  5.2494770240336841e+00  5.2494734028925274e+00  5.0000066781790498e+00  5.0000065185344216e+00  4.7505363669222023e+00  4.7505396676329044e+00  4.5010581028326220e+00  4.5010648763689423e+00  4.2515638850567061e+00  4.2515741570784797e+00  4.0020456866733136e+00  4.0020594951673578e+00  3.7524954441034479e+00  3.7525128379901753e+00  3.5029050496458334e+00  3.5029260866975798e+00  8.2462190845500256e+00  8.2461750828673495e+00  7.9961162277646869e+00  7.9960756735751737e+00  7.7461072482407340e+00  7.7460702358564539e+00  7.4961848035338274e+00  7.4961513543858240e+00  7.2463413039844289e+00  7.2463113979339111e+00  6.9965689973175129e+00  6.9965425914334096e+00  6.7468600299237860e+00  6.7468370702148164e+00  6.4972064913130891e+00  6.4971869203323811e+00  6.2476004455785272e+00  6.2475842075112258e+00  5.9980339524840094e+00  5.9980209966349163e+00  5.7484990801854243e+00  5.7484893634026930e+00  5.4989879112742388e+00  5.4989813996287973e+00  5.2494925436444069e+00  5.2494892135577613e+00  5.0000050875646025e+00  5.0000049265000444e+00  4.7505176602609378e+00  4.7505206670425553e+00  4.5010223792670683e+00  4.5010285640550123e+00  4.2515113557746158e+00  4.2515207396950414e+00  4.0019766892140218e+00  4.0019893036120928e+00  3.7524104643139382e+00  3.7524263495615591e+00  3.5028047519256322e+00  3.5028239556639691e+00  7.9962665248715714e+00  7.9962300841096594e+00  8.2463712055400382e+00  7.7462524541284870e+00  7.7462191500850857e+00  7.4963223167125319e+00  7.4962921742402946e+00  7.2464690684780555e+00  7.2464420786301114e+00  6.9966854000014873e+00  6.9966615347149181e+00  6.7469638150034958e+00  6.7469430363171687e+00  6.4972966901523472e+00  6.4972789562702413e+00  6.2476763198280674e+00  6.2476615892657739e+00  5.9980949486153294e+00  5.9980831831171191e+00  5.7485447938336556e+00  5.7485359604541104e+00  5.4990180601185230e+00  5.4990121327004156e+00  5.2495069478605307e+00  5.2495039080472390e+00  5.0000036571610620e+00  5.0000034950255774e+00  4.7505003888582538e+00  4.7505031031944602e+00  4.5009893441091382e+00  4.5009949424052218e+00  4.2514627239808007e+00  4.2514712220730617e+00  4.0019127305023021e+00  4.0019241518859756e+00  3.7523315706604632e+00  3.7523459454075949e+00  3.5027114648860262e+00  3.5027288280829771e+00  3.2530446616733686e+00  3.2530650512321664e+00  7.9964032263616822e+00  7.9963709514758916e+00  7.7463837962772164e+00  7.7463542132737286e+00  7.4964461299734584e+00  7.4964192805847043e+00  7.2465836662647183e+00  7.2465595628549577e+00  6.9967894782139899e+00  6.9967681150683614e+00  6.7470563718376564e+00  6.7470377324912540e+00  6.4973769623555739e+00  6.4973610246213322e+00  6.2477437322455671e+00  6.2477304718089606e+00  5.9981490745608408e+00  5.9981384676172578e+00  5.7485853244129013e+00  5.7485773496197003e+00  5.4990447811154528e+00  5.4990394210194005e+00  5.2495197231815016e+00  5.2495169652186719e+00  5.0000024181430636e+00  5.0000022552694716e+00  4.7504851290062433e+00  4.7504875599920151e+00  4.5009601190544428e+00  4.5009651484555286e+00  4.2514196566641473e+00  4.2514272944697522e+00  4.0018560217982158e+00  4.0018662827358549e+00  3.7522615158907509e+00  3.7522744183514893e+00  3.5026284769376854e+00  3.5026440414572195e+00  3.2529493017626119e+00  3.2529675489528822e+00  3.0032164776452164e+00  3.0032374254037921e+00  7.7464952925465278e+00  7.7464693253872472e+00  7.9965199413523722e+00  7.4965507426215874e+00  7.4965270705984413e+00  7.2466801212210941e+00  7.2466587872736827e+00  6.9968768041501690e+00  6.9968578311471488e+00  6.7471338323336214e+00  6.7471172294487607e+00  6.4974440033605774e+00  6.4974297707277522e+00  6.2477999412720715e+00  6.2477880734908871e+00  5.9981941490702431e+00  5.9981846378845383e+00  5.7486190475832712e+00  5.7486118839243421e+00  5.4990670037078067e+00  5.4990621792211876e+00  5.2495303506068520e+00  5.2495278587379914e+00  5.0000014021241732e+00  5.0000012388101975e+00  4.7504724634591309e+00  4.7504746274540608e+00  4.5009358400097970e+00  4.5009403328550022e+00  4.2513838462275659e+00  4.2513906718654271e+00  4.0018088163272418e+00  4.0018179803418752e+00  3.7522031187638034e+00  3.7522146272163073e+00  3.5025591765249802e+00  3.5025730343293295e+00  3.2528694955088291e+00  3.2528857042639161e+00  3.0031267035751399e+00  3.0031452587205596e+00  2.7533236033048198e+00  2.7533444903883537e+00  7.7465806235960608e+00  7.7465580850522837e+00  7.9966097764017636e+00  7.4966304406435649e+00  7.4966097699334551e+00  7.2467533338959118e+00  7.2467346093374250e+00  6.9969428898349424e+00  6.9969261651819501e+00  6.7471923105211671e+00  6.7471776214102199e+00  6.4974945169917628e+00  6.4974818858678196e+00  6.2478422278250134e+00  6.2478316677633057e+00  5.9982280183511740e+00  5.9982195360326376e+00  5.7486443648000440e+00  5.7486379628070354e+00  5.4990836768490601e+00  5.4990793553924808e+00  5.2495383214575346e+00  5.2495360796101256e+00  5.0000006404719191e+00  5.0000004769565543e+00  4.7504629642175731e+00  4.7504648777798399e+00  4.5009176231267034e+00  4.5009216125046425e+00  4.2513569593733855e+00  4.2513630228622370e+00  4.0017733404873876e+00  4.0017814750818639e+00  3.7521591769990530e+00  3.7521693770784514e+00  3.5025069463355130e+00  3.5025192018356033e+00  3.2528092254609429e+00  3.2528235194479742e+00  3.0030587351589508e+00  3.0030750406799576e+00  2.7532483994399675e+00  2.7532666754602975e+00  7.7466332759350944e+00  7.7466142401257096e+00  7.4966794163773782e+00  7.4966618425301705e+00  7.2467981774148180e+0