<?xml version="1.0"?>
<VTKFile type="UnstructuredGrid"  version="0.1"  >
<UnstructuredGrid>
<Piece  NumberOfPoints="7705" NumberOfCells="39130">
<Points>
<DataArray  type="Float64"  NumberOfComponents="3"  format="ascii">0 0 0.175  0.025 0 0.175  0.025 0 0.2  0.025 0.025 0.2  0 0 0.2  0 0.025 0.2  0 0.025 0.175  0.05 0 0.175  0.05 0 0.2  0.05 0.025 0.2  0.075 0 0.2  0.075 0.025 0.2  0.025 0.05 0.2  0 0.05 0.2  0 0.05 0.175  0.025 0.075 0.2  0 0.075 0.2  0.025 0.025 0.225  0.025 0 0.225  0 0 0.225  0 0.025 0.225  0.05 0.025 0.225  0.05 0 0.225  0.075 0.025 0.225  0.075 0 0.225  0.1 0 0.225  0.1 0.025 0.225  0.025 0.05 0.225  0 0.05 0.225  0.05 0.05 0.2  0.05 0.05 0.225  0.075 0.05 0.2  0.075 0.05 0.225  0.1 0.05 0.225  0.025 0.075 0.225  0 0.075 0.225  0.05 0.075 0.225  0.075 0.075 0.225  0.1 0.075 0.225  0.025 0.1 0.2  0.025 0.1 0.225  0 0.1 0.2  0 0.1 0.225  0.05 0.1 0.225  0.025 0.125 0.225  0 0.125 0.225  0.05 0.125 0.225  0.025 0.025 0.25  0.025 0 0.25  0 0 0.25  0 0.025 0.25  0.05 0.025 0.25  0.05 0 0.25  0.075 0.025 0.25  0.075 0 0.25  0.1 0.025 0.25  0.1 0 0.25  0.125 0 0.225  0.125 0 0.25  0.125 0.025 0.25  0.15 0 0.225  0.15 0 0.25  0.15 0.025 0.25  0.175 0.025 0.25  0.025 0.05 0.25  0 0.05 0.25  0.05 0.05 0.25  0.075 0.05 0.25  0.1 0.05 0.25  0.125 0.05 0.25  0.025 0.075 0.25  0 0.075 0.25  0.05 0.075 0.25  0.075 0.075 0.25  0.1 0.075 0.25  0.125 0.075 0.25  0.025 0.1 0.25  0 0.1 0.25  0.05 0.1 0.25  0.075 0.1 0.25  0.1 0.1 0.25  0.125 0.1 0.25  0.025 0.125 0.25  0 0.125 0.25  0.05 0.125 0.25  0.075 0.125 0.25  0.025 0.15 0.25  0 0.15 0.25  0.05 0.15 0.25  0.075 0.15 0.25  0.025 0.025 0.275  0.025 0 0.275  0 0 0.275  0 0.025 0.275  0.05 0.025 0.275  0.05 0 0.275  0.075 0.025 0.275  0.075 0 0.275  0.1 0.025 0.275  0.1 0 0.275  0.125 0.025 0.275  0.125 0 0.275  0.15 0.025 0.275  0.15 0 0.275  0.175 0.025 0.275  0.025 0.05 0.275  0 0.05 0.275  0.05 0.05 0.275  0.075 0.05 0.275  0.1 0.05 0.275  0.125 0.05 0.275  0.15 0.05 0.25  0.15 0.05 0.275  0.175 0.05 0.25  0.175 0.05 0.275  0.2 0.05 0.275  0.025 0.075 0.275  0 0.075 0.275  0.05 0.075 0.275  0.075 0.075 0.275  0.1 0.075 0.275  0.125 0.075 0.275  0.15 0.075 0.25  0.15 0.075 0.275  0.175 0.075 0.275  0.2 0.075 0.275  0.025 0.1 0.275  0 0.1 0.275  0.05 0.1 0.275  0.075 0.1 0.275  0.1 0.1 0.275  0.125 0.1 0.275  0.15 0.1 0.25  0.15 0.1 0.275  0.175 0.1 0.275  0.025 0.125 0.275  0 0.125 0.275  0.05 0.125 0.275  0.075 0.125 0.275  0.1 0.125 0.25  0.1 0.125 0.275  0.125 0.125 0.25  0.125 0.125 0.275  0.15 0.125 0.275  0.175 0.125 0.275  0.025 0.15 0.275  0 0.15 0.275  0.05 0.15 0.275  0.075 0.15 0.275  0.1 0.15 0.25  0.1 0.15 0.275  0.125 0.15 0.275  0.15 0.15 0.275  0.025 0.175 0.25  0.025 0.175 0.275  0 0.175 0.25  0 0.175 0.275  0.05 0.175 0.275  0.075 0.175 0.275  0.1 0.175 0.275  0.125 0.175 0.275  0.025 0.2 0.275  0 0.2 0.275  0 0.2 0.25  0.05 0.2 0.275  0.025 0.225 0.275  0 0.225 0.275  0.025 0.025 0.3  0.025 0 0.3  0 0 0.3  0 0.025 0.3  0.05 0.025 0.3  0.05 0 0.3  0.075 0.025 0.3  0.075 0 0.3  0.1 0.025 0.3  0.1 0 0.3  0.125 0.025 0.3  0.125 0 0.3  0.15 0.025 0.3  0.15 0 0.3  0.175 0.025 0.3  0.025 0.05 0.3  0 0.05 0.3  0.05 0.05 0.3  0.075 0.05 0.3  0.1 0.05 0.3  0.125 0.05 0.3  0.15 0.05 0.3  0.175 0.05 0.3  0.2 0.05 0.3  0.025 0.075 0.3  0 0.075 0.3  0.05 0.075 0.3  0.075 0.075 0.3  0.1 0.075 0.3  0.125 0.075 0.3  0.15 0.075 0.3  0.175 0.075 0.3  0.2 0.075 0.3  0.025 0.1 0.3  0 0.1 0.3  0.05 0.1 0.3  0.075 0.1 0.3  0.1 0.1 0.3  0.125 0.1 0.3  0.15 0.1 0.3  0.175 0.1 0.3  0.2 0.1 0.3  0.225 0.1 0.3  0.025 0.125 0.3  0 0.125 0.3  0.05 0.125 0.3  0.075 0.125 0.3  0.1 0.125 0.3  0.125 0.125 0.3  0.15 0.125 0.3  0.175 0.125 0.3  0.2 0.125 0.3  0.025 0.15 0.3  0 0.15 0.3  0.05 0.15 0.3  0.075 0.15 0.3  0.1 0.15 0.3  0.125 0.15 0.3  0.15 0.15 0.3  0.175 0.15 0.275  0.175 0.15 0.3  0.2 0.15 0.3  0.025 0.175 0.3  0 0.175 0.3  0.05 0.175 0.3  0.075 0.175 0.3  0.1 0.175 0.3  0.125 0.175 0.3  0.15 0.175 0.3  0.175 0.175 0.3  0.2 0.175 0.3  0.025 0.2 0.3  0 0.2 0.3  0.05 0.2 0.3  0.075 0.2 0.275  0.075 0.2 0.3  0.1 0.2 0.3  0.125 0.2 0.3  0.15 0.2 0.3  0.025 0.225 0.3  0 0.225 0.3  0.05 0.225 0.275  0.05 0.225 0.3  0.075 0.225 0.275  0.075 0.225 0.3  0.1 0.225 0.3  0.025 0.25 0.3  0 0.25 0.3  0.05 0.25 0.3  0.075 0.25 0.3  0.1 0.25 0.3  0.025 0.025 0.325  0.025 0 0.325  0 0 0.325  0 0.025 0.325  0.05 0.025 0.325  0.05 0 0.325  0.075 0.025 0.325  0.075 0 0.325  0.1 0.025 0.325  0.1 0 0.325  0.125 0.025 0.325  0.125 0 0.325  0.15 0.025 0.325  0.15 0 0.325  0.175 0.025 0.325  0.025 0.05 0.325  0 0.05 0.325  0.05 0.05 0.325  0.075 0.05 0.325  0.1 0.05 0.325  0.125 0.05 0.325  0.15 0.05 0.325  0.175 0.05 0.325  0.2 0.05 0.325  0.025 0.075 0.325  0 0.075 0.325  0.05 0.075 0.325  0.075 0.075 0.325  0.1 0.075 0.325  0.125 0.075 0.325  0.15 0.075 0.325  0.175 0.075 0.325  0.2 0.075 0.325  0.025 0.1 0.325  0 0.1 0.325  0.05 0.1 0.325  0.075 0.1 0.325  0.1 0.1 0.325  0.125 0.1 0.325  0.15 0.1 0.325  0.175 0.1 0.325  0.2 0.1 0.325  0.225 0.1 0.325  0.025 0.125 0.325  0 0.125 0.325  0.05 0.125 0.325  0.075 0.125 0.325  0.1 0.125 0.325  0.125 0.125 0.325  0.15 0.125 0.325  0.175 0.125 0.325  0.2 0.125 0.325  0.225 0.125 0.3  0.225 0.125 0.325  0.25 0.125 0.3  0.25 0.125 0.325  0.025 0.15 0.325  0 0.15 0.325  0.05 0.15 0.325  0.075 0.15 0.325  0.1 0.15 0.325  0.125 0.15 0.325  0.15 0.15 0.325  0.175 0.15 0.325  0.2 0.15 0.325  0.225 0.15 0.3  0.225 0.15 0.325  0.25 0.15 0.3  0.25 0.15 0.325  0.275 0.15 0.325  0.025 0.175 0.325  0 0.175 0.325  0.05 0.175 0.325  0.075 0.175 0.325  0.1 0.175 0.325  0.125 0.175 0.325  0.15 0.175 0.325  0.175 0.175 0.325  0.2 0.175 0.325  0.225 0.175 0.3  0.225 0.175 0.325  0.25 0.175 0.3  0.25 0.175 0.325  0.275 0.175 0.325  0.025 0.2 0.325  0 0.2 0.325  0.05 0.2 0.325  0.075 0.2 0.325  0.1 0.2 0.325  0.125 0.2 0.325  0.15 0.2 0.325  0.175 0.2 0.3  0.175 0.2 0.325  0.2 0.2 0.3  0.2 0.2 0.325  0.225 0.2 0.3  0.225 0.2 0.325  0.25 0.2 0.325  0.275 0.2 0.325  0.025 0.225 0.325  0 0.225 0.325  0.05 0.225 0.325  0.075 0.225 0.325  0.1 0.225 0.325  0.125 0.225 0.3  0.125 0.225 0.325  0.15 0.225 0.325  0.175 0.225 0.325  0.2 0.225 0.3  0.2 0.225 0.325  0.225 0.225 0.3  0.225 0.225 0.325  0.25 0.225 0.325  0.025 0.25 0.325  0 0.25 0.325  0.05 0.25 0.325  0.075 0.25 0.325  0.1 0.25 0.325  0.125 0.25 0.325  0.15 0.25 0.325  0.225 0.25 0.325  0.2 0.25 0.325  0.25 0.25 0.325  0.075 0.275 0.325  0.1 0.275 0.325  0.125 0.275 0.325  0.025 0.025 0.35  0.025 0 0.35  0 0 0.35  0 0.025 0.35  0.05 0.025 0.35  0.05 0 0.35  0.075 0.025 0.35  0.075 0 0.35  0.1 0.025 0.35  0.1 0 0.35  0.125 0.025 0.35  0.125 0 0.35  0.15 0.025 0.35  0.15 0 0.35  0.175 0.025 0.35  0.025 0.05 0.35  0 0.05 0.35  0.05 0.05 0.35  0.075 0.05 0.35  0.1 0.05 0.35  0.125 0.05 0.35  0.15 0.05 0.35  0.175 0.05 0.35  0.2 0.05 0.35  0.025 0.075 0.35  0 0.075 0.35  0.05 0.075 0.35  0.075 0.075 0.35  0.1 0.075 0.35  0.125 0.075 0.35  0.15 0.075 0.35  0.175 0.075 0.35  0.2 0.075 0.35  0.225 0.075 0.35  0.025 0.1 0.35  0 0.1 0.35  0.05 0.1 0.35  0.075 0.1 0.35  0.1 0.1 0.35  0.125 0.1 0.35  0.15 0.1 0.35  0.175 0.1 0.35  0.2 0.1 0.35  0.225 0.1 0.35  0.025 0.125 0.35  0 0.125 0.35  0.05 0.125 0.35  0.075 0.125 0.35  0.1 0.125 0.35  0.125 0.125 0.35  0.15 0.125 0.35  0.175 0.125 0.35  0.2 0.125 0.35  0.225 0.125 0.35  0.25 0.125 0.35  0.025 0.15 0.35  0 0.15 0.35  0.05 0.15 0.35  0.075 0.15 0.35  0.1 0.15 0.35  0.125 0.15 0.35  0.15 0.15 0.35  0.175 0.15 0.35  0.2 0.15 0.35  0.225 0.15 0.35  0.25 0.15 0.35  0.275 0.15 0.35  0.025 0.175 0.35  0 0.175 0.35  0.05 0.175 0.35  0.075 0.175 0.35  0.1 0.175 0.35  0.125 0.175 0.35  0.15 0.175 0.35  0.175 0.175 0.35  0.2 0.175 0.35  0.225 0.175 0.35  0.25 0.175 0.35  0.275 0.175 0.35  0.3 0.175 0.35  0.025 0.2 0.35  0 0.2 0.35  0.05 0.2 0.35  0.075 0.2 0.35  0.1 0.2 0.35  0.125 0.2 0.35  0.15 0.2 0.35  0.175 0.2 0.35  0.2 0.2 0.35  0.225 0.2 0.35  0.25 0.2 0.35  0.275 0.2 0.35  0.3 0.2 0.35  0.025 0.225 0.35  0 0.225 0.35  0.05 0.225 0.35  0.075 0.225 0.35  0.1 0.225 0.35  0.125 0.225 0.35  0.15 0.225 0.35  0.175 0.225 0.35  0.2 0.225 0.35  0.225 0.225 0.35  0.25 0.225 0.35  0.275 0.225 0.35  0.3 0.225 0.35  0.025 0.25 0.35  0 0.25 0.35  0.05 0.25 0.35  0.075 0.25 0.35  0.1 0.25 0.35  0.125 0.25 0.35  0.15 0.25 0.35  0.175 0.25 0.35  0.2 0.25 0.35  0.225 0.25 0.35  0.25 0.25 0.35  0.275 0.25 0.35  0.075 0.275 0.35  0.1 0.275 0.35  0.125 0.275 0.35  0.15 0.275 0.35  0.225 0.275 0.35  0.2 0.275 0.35  0.25 0.275 0.35  0.275 0.275 0.35  0.025 0.025 0.375  0.025 0 0.375  0 0 0.375  0 0.025 0.375  0.05 0.025 0.375  0.05 0 0.375  0.075 0.025 0.375  0.075 0 0.375  0.1 0.025 0.375  0.1 0 0.375  0.125 0.025 0.375  0.125 0 0.375  0.15 0.025 0.375  0.15 0 0.375  0.175 0.025 0.375  0.025 0.05 0.375  0 0.05 0.375  0.05 0.05 0.375  0.075 0.05 0.375  0.1 0.05 0.375  0.125 0.05 0.375  0.15 0.05 0.375  0.175 0.05 0.375  0.2 0.05 0.375  0.025 0.075 0.375  0 0.075 0.375  0.05 0.075 0.375  0.075 0.075 0.375  0.1 0.075 0.375  0.125 0.075 0.375  0.15 0.075 0.375  0.175 0.075 0.375  0.2 0.075 0.375  0.225 0.075 0.375  0.025 0.1 0.375  0 0.1 0.375  0.05 0.1 0.375  0.075 0.1 0.375  0.1 0.1 0.375  0.125 0.1 0.375  0.15 0.1 0.375  0.175 0.1 0.375  0.2 0.1 0.375  0.225 0.1 0.375  0.025 0.125 0.375  0 0.125 0.375  0.05 0.125 0.375  0.075 0.125 0.375  0.1 0.125 0.375  0.125 0.125 0.375  0.15 0.125 0.375  0.175 0.125 0.375  0.2 0.125 0.375  0.225 0.125 0.375  0.25 0.125 0.375  0.025 0.15 0.375  0 0.15 0.375  0.05 0.15 0.375  0.075 0.15 0.375  0.1 0.15 0.375  0.125 0.15 0.375  0.15 0.15 0.375  0.175 0.15 0.375  0.2 0.15 0.375  0.225 0.15 0.375  0.25 0.15 0.375  0.275 0.15 0.375  0.025 0.175 0.375  0 0.175 0.375  0.05 0.175 0.375  0.075 0.175 0.375  0.1 0.175 0.375  0.125 0.175 0.375  0.15 0.175 0.375  0.175 0.175 0.375  0.2 0.175 0.375  0.225 0.175 0.375  0.25 0.175 0.375  0.275 0.175 0.375  0.3 0.175 0.375  0.025 0.2 0.375  0 0.2 0.375  0.05 0.2 0.375  0.075 0.2 0.375  0.1 0.2 0.375  0.125 0.2 0.375  0.15 0.2 0.375  0.175 0.2 0.375  0.2 0.2 0.375  0.225 0.2 0.375  0.25 0.2 0.375  0.275 0.2 0.
[...]
<PointData  Scalars="f_8"> 
<DataArray  type="Float64"  Name="f_8"  format="ascii">9.9999999999999982e+00  9.7490872177490218e+00  9.7490455830408695e+00  9.7490042870002966e+00  1.0000000000000002e+01  9.9999999999999982e+00  1.0000000000000000e+01  9.4982770067787161e+00  9.4981987454878585e+00  9.4981428803185004e+00  9.2474810408579753e+00  9.2474204956674058e+00  9.7489148349285344e+00  1.0000000000000000e+01  1.0000000000000000e+01  9.7488063645769945e+00  1.0000000000000000e+01  9.7489627296292962e+00  9.7490059889648624e+00  1.0000000000000000e+01  1.0000000000000000e+01  9.4980650015383112e+00  9.4981239067864021e+00  9.2473126941225843e+00  9.2473768644292065e+00  8.9967699247791124e+00  8.9967052020804683e+00  9.7488685385885638e+00  9.9999999999999982e+00  9.4980109136681534e+00  9.4979253981634084e+00  9.2472700822926388e+00  9.2471529575466604e+00  8.9965390736376296e+00  9.7487537349486644e+00  1.0000000000000000e+01  9.4977439865555251e+00  9.2469363093639565e+00  8.9963069921769652e+00  9.7486918760200005e+00  9.7486320591570390e+00  1.0000000000000000e+01  1.0000000000000002e+01  9.4975436774365676e+00  9.7485105260410112e+00  9.9999999999999982e+00  9.4973380433437242e+00  9.7489239638194363e+00  9.7489689116078004e+00  1.0000000000000000e+01  1.0000000000000002e+01  9.4979919802602808e+00  9.4980535242388324e+00  9.2472110510249443e+00  9.2472783981687403e+00  8.9965809944563375e+00  8.9966491661457546e+00  8.7463004904751127e+00  8.7461632582901583e+00  8.7460968593072366e+00  8.4959623544747469e+00  8.4958141647452816e+00  8.4957509798421693e+00  8.2455342563447473e+00  9.7488256663417481e+00  1.0000000000000002e+01  9.4978457029864423e+00  9.2470430935684362e+00  8.9964058087727281e+00  8.7459227692732604e+00  9.7487053252165907e+00  9.9999999999999982e+00  9.4976550330860672e+00  9.2468148206753096e+00  8.9961607441648788e+00  8.7456741515547893e+00  9.7485773066768999e+00  1.0000000000000000e+01  9.4974439196860452e+00  9.2465540566955173e+00  8.9958740117396960e+00  8.7453778465568508e+00  9.7484490537047108e+00  1.0000000000000002e+01  9.4972266891196551e+00  9.2462794548055474e+00  9.7483247204544110e+00  1.0000000000000000e+01  9.4970120953715913e+00  9.2460034218406228e+00  9.7488883110694378e+00  9.7489347076831052e+00  1.0000000000000000e+01  9.9999999999999982e+00  9.4979245523486604e+00  9.4979883769735451e+00  9.2471167761757442e+00  9.2471868898071783e+00  8.9964652603629869e+00  8.9965364584614598e+00  8.7459650937688895e+00  8.7460346207613000e+00  8.4956083716267905e+00  8.4956746724944949e+00  8.2453855849171376e+00  9.7487864689578938e+00  1.0000000000000000e+01  9.4977724756349033e+00  9.2469416243697715e+00  8.9962820912783048e+00  8.7457826707632567e+00  8.4955829356027337e+00  8.4954319664139195e+00  8.2453752434599483e+00  8.2452184171827323e+00  7.9951304769699156e+00  9.7486613140218541e+00  1.0000000000000000e+01  9.4975737081999050e+00  9.2467031179070283e+00  8.9960255209779429e+00  8.7455219265628958e+00  8.4953392443320261e+00  8.4951760166775152e+00  8.2449730791318299e+00  7.9948995139009895e+00  9.7485277408608582e+00  1.0000000000000000e+01  9.4973530803840571e+00  9.2464301620230920e+00  8.9957249329597389e+00  8.7452108933955746e+00  8.4950446071189898e+00  8.4948663878474928e+00  8.2446729798667082e+00  9.7483935595249882e+00  1.0000000000000000e+01  9.4971255674606390e+00  9.2461422450740383e+00  8.9955661906770015e+00  8.9954018464299406e+00  8.7450546897839825e+00  8.7448713896715855e+00  8.4945241431023408e+00  8.2443378437018318e+00  9.7482631885217952e+00  1.0000000000000000e+01  9.4969004055296420e+00  9.2458524143976071e+00  8.9952519692964970e+00  8.9950716912784028e+00  8.7445199448672835e+00  8.4941659506681830e+00  9.7482067129020145e+00  9.7481392258725563e+00  1.0000000000000002e+01  1.0000000000000000e+01  9.4966833916518585e+00  9.2455694024978072e+00  8.9947454029596798e+00  8.7441688579418315e+00  9.7480232129987918e+00  1.0000000000000000e+01  1.0000000000000000e+01  9.4964781899274620e+00  9.7479160465983110e+00  1.0000000000000000e+01  9.7488560102685753e+00  9.7489036441364298e+00  1.0000000000000000e+01  9.9999999999999982e+00  9.4978632684811171e+00  9.4979290518947330e+00  9.2470307855939105e+00  9.2471032895493916e+00  8.9963593008234053e+00  8.9964331297914679e+00  8.7458440027935485e+00  8.7459162654282760e+00  8.4954768361233217e+00  8.4955458780389570e+00  8.2452479791340672e+00  9.7487511267916478e+00  9.9999999999999982e+00  9.4977061892415815e+00  9.2468493929724058e+00  8.9961691663275047e+00  8.7456542674584323e+00  8.4952930529909825e+00  8.2450735772260710e+00  7.9949838322442810e+00  9.7486218182139979e+00  1.0000000000000000e+01  9.4975004006402539e+00  9.2466019667760797e+00  8.9959025133107033e+00  8.7453828391559600e+00  8.4950262461441621e+00  8.2448175334271170e+00  7.9947425573026401e+00  9.7484834238491302e+00  1.0000000000000000e+01  9.4972714776350653e+00  9.2463183300890499e+00  8.9955897264754316e+00  8.7450587741307810e+00  8.4947032876662867e+00  8.2445042198087535e+00  7.9944447393157398e+00  7.7445096722348836e+00  9.7483440661982232e+00  1.0000000000000000e+01  9.4970349497933011e+00  9.2460186878016071e+00  8.9952531356365455e+00  8.7447047430450269e+00  8.4943460963526665e+00  8.2441541926381401e+00  7.9941092644146057e+00  9.7482083925108167e+00  9.9999999999999982e+00  9.4968004712718646e+00  9.2457166444204084e+00  8.9949088183025427e+00  8.7443379719695002e+00  8.4939720531011407e+00  8.2439838272139117e+00  8.2437843123346397e+00  7.9937520448269783e+00  9.7480791704777161e+00  9.9999999999999982e+00  9.4965741549814346e+00  9.2454213625150068e+00  8.9945682204628277e+00  8.7439713197060307e+00  8.4935946549479642e+00  8.2434081051076245e+00  7.9933861921225127e+00  9.7479580670174766e+00  1.0000000000000002e+01  9.4963599020163549e+00  9.2452990488918587e+00  9.2451390098732915e+00  8.9942394273171775e+00  8.7436142615626178e+00  8.4932242154117414e+00  9.7478460704805947e+00  1.0000000000000000e+01  9.4962871022361757e+00  9.4961601897344501e+00  9.2450452375441614e+00  9.2448737173703197e+00  8.9939281046072050e+00  9.7477437381224608e+00  9.9999999999999982e+00  9.4959765592328047e+00  9.2446282180266408e+00  8.9936381807579764e+00  9.7488272377704046e+00  9.7488759198062578e+00  1.0000000000000000e+01  1.0000000000000002e+01  9.4978085390169422e+00  9.4978759894744709e+00  9.2469537701665327e+00  9.2470283181831157e+00  8.9962641105471448e+00  8.9963402003119608e+00  8.7457348812249993e+00  8.7458095062171353e+00  8.4953579399727239e+00  8.4954293602543469e+00  8.2451232301366915e+00  9.7487197679353788e+00  9.9999999999999982e+00  9.4976471875346835e+00  9.2467670236441073e+00  8.9960679726125097e+00  8.7455388138823071e+00  8.4951677386751658e+00  8.2449425073796370e+00  7.9948507396187152e+00  9.7485869111791477e+00  1.0000000000000000e+01  9.4974353776629155e+00  9.2465119156982798e+00  8.9957925982263571e+00  8.7452581032075507e+00  8.4948914582123543e+00  8.2446770830743272e+00  7.9946003937504351e+00  9.7484443788130637e+00  9.9999999999999982e+00  9.4971993091318136e+00  9.2462190425084465e+00  8.9954692191824623e+00  8.7449226760785432e+00  8.4945568308830062e+00  8.2443521563437212e+00  7.9942912984820529e+00  7.7443585510299506e+00  9.7483005569082319e+00  1.0000000000000000e+01  9.4969549804126014e+00  9.2459092173002535e+00  8.9951208563672722e+00  8.7445559330172351e+00  8.4941865116562791e+00  8.2439890026158800e+00  7.9939430257384272e+00  7.7441939795379859e+00  7.7440306418559377e+00  7.4943928868380496e+00  7.4942358215565577e+00  9.7481602881063871e+00  1.0000000000000000e+01  9.4967124034686261e+00  9.2455965227767241e+00  8.9947641449883111e+00  8.7441757022196782e+00  8.4937984998873262e+00  8.2436050955493005e+00  7.9935720797662411e+00  7.7438556580672113e+00  7.7436791750564566e+00  7.4940779833661315e+00  7.4939085695933674e+00  7.2442444186207471e+00  9.7480264873900477e+00  1.0000000000000002e+01  9.4964779655633631e+00  9.2452904956238822e+00  8.9944109761078721e+00  8.7437953318246677e+00  8.4934068033390222e+00  8.2432144748554244e+00  7.9931920738319571e+00  7.7435070986760035e+00  7.7433170203116060e+00  7.4937519029305451e+00  7.4935696835944885e+00  7.2439328020357738e+00  9.7479009327530051e+00  9.9999999999999982e+00  9.4962557772899761e+00  9.2449975937464970e+00  8.9940697856960004e+00  8.7434246888833940e+00  8.4930221503734220e+00  8.2430362303466254e+00  8.2428282225273719e+00  7.9930223107624023e+00  7.9928140301335660e+00  7.7431585436134256e+00  7.7429548226896721e+00  7.4932291982295345e+00  7.2436184743070644e+00  9.7477846955170619e+00  9.9999999999999982e+00  9.4960484742928397e+00  9.2447221702058329e+00  8.9937465120289630e+00  8.7432737030777314e+00  8.7430709876934092e+00  8.4926526485163265e+00  8.2424549557128781e+00  7.9926688417317839e+00  7.9924467316067407e+00  7.7428183209754389e+00  7.7426012434643665e+00  7.4928954240217491e+00  9.7476783939049945e+00  1.0000000000000000e+01  9.4958577153997599e+00  9.2444671255185522e+00  8.9934452918826722e+00  8.7427394443430106e+00  8.4923043493626569e+00  7.7422632263221649e+00  7.9920970777621001e+00  7.4925751404229430e+00  9.2442343518342334e+00  8.9931689644341262e+00  8.7424337817543858e+00  9.7488021224888559e+00  9.7488516816614776e+00  1.0000000000000000e+01  9.9999999999999982e+00  9.4977606675296666e+00  9.4978295181428063e+00  9.2468862476444755e+00  9.2469625190673259e+00  8.9961804449677167e+00  8.9962584483885681e+00  8.7456387256232784e+00  8.7457153581668390e+00  8.4952529046976544e+00  8.4953263540318531e+00  8.2450127519424132e+00  9.7486924817004947e+00  1.0000000000000000e+01  9.4975957177290820e+00  9.2466949753786434e+00  8.9959792131149126e+00  8.7454372651267214e+00  8.4950572163147182e+00  8.2448266056436204e+00  7.9947327567402899e+00  9.7485566358662794e+00  1.0000000000000000e+01  9.4973788193454087e+00  9.2464333535774070e+00  8.9956964170745159e+00  8.7451486269688168e+00  8.4947728161983811e+00  8.2445531136981476e+00  7.9944745838249922e+00  7.7445230867690702e+00  9.7484106042243326e+00  1.0000000000000000e+01  9.4971366905106738e+00  9.2461326218317268e+00  8.9953639961354028e+00  8.7448034680266851e+00  8.4944281608692016e+00  8.2442181744109746e+00  7.9941557353912263e+00  7.7442246999140156e+00  9.7482629924096642e+00  1.0000000000000000e+01  9.4968857212099866e+00  9.2458141027767002e+00  8.9950055518257770e+00  8.7444258043120673e+00  8.4940465284978899e+00  8.2438436743679784e+00  7.9937963683744444e+00  7.7438861715663707e+00  7.4940965690752863e+00  9.7481188074112026e+00  9.9999999999999982e+00  9.4966362248804703e+00  9.2454922829763859e+00  8.9946381916923066e+00  8.7440339755925702e+00  8.4936464456348784e+00  8.2434476117428286e+00  7.9934134950757523e+00  7.7435232533205234e+00  7.4937585344543667e+00  7.2441029919118112e+00  9.7479810896688175e+00  1.0000000000000000e+01  9.4963948226451311e+00  9.2451770184762037e+00  8.9942741874742200e+00  8.7436417495190870e+00  8.4932423590147152e+00  8.2430444687868434e+00  7.9930211622953298e+00  7.7431492297213005e+00  7.4934084445851843e+00  7.2437809968080265e+00  6.9942510445284531e+00  9.7478517132336329e+00  1.0000000000000000e+01  9.4961658061721721e+00  9.2448750179886119e+00  8.9939222786288422e+00  8.7432593325058967e+00  8.4928453569410696e+00  8.2426456948233202e+00  7.9926307560218959e+00  7.7427750973167431e+00  7.4930566664551792e+00  7.2434561862349538e+00  6.9939566529893655e+00  9.7477318224613363e+00  1.0000000000000000e+01  9.4959519501277789e+00  9.2445908294560866e+00  8.9935886423229530e+00  8.7428942094770310e+00  8.4924638375757500e+00  8.2422602070624311e+00  7.9922513595268807e+00  7.7424098103350953e+00  7.4927117899369398e+00  7.2431366045456658e+00  6.9936661011116907e+00  9.7476220903479192e+00  1.0000000000000000e+01  9.4957550186507476e+00  9.2443275027278062e+00  8.9932776006434150e+00  8.7425518090590817e+00  8.4921040835213759e+00  8.2418948577286297e+00  7.9918901163129581e+00  7.7420605527543600e+00  7.4923808256069382e+00  7.2428289135763286e+00  9.2440870424642068e+00  8.9929921341468688e+00  8.7422360183618633e+00  8.4917707358099790e+00  7.7417330093512193e+00  7.9915525696320264e+00  7.4920694150475233e+00  7.2425385519385612e+00  9.7487807574415832e+00  9.7488310371705769e+00  1.0000000000000000e+01  1.0000000000000000e+01  9.4977198762750596e+00  9.4977898804761338e+00  9.2468286024443938e+00  9.2469062981355563e+00  8.9961088725105949e+00  8.9961884624161979e+00  8.7455562954204744e+00  8.7456345975973857e+00  8.4951626724067992e+00  8.4952378145914764e+00  8.2449176474882915e+00  9.7486693288708182e+00  9.9999999999999982e+00  9.4975519551522947e+00  9.2466335821637831e+00  8.9959034093644075e+00  8.7453503413277982e+00  8.4949623982226630e+00  8.2447269550216227e+00  7.9946311043503258e+00  9.7485310143969865e+00  9.9999999999999982e+00  9.4973308435763784e+00  9.2463665522824439e+00  8.9956144339516442e+00  8.7450550834178404e+00  8.4946711982080831e+00  8.2444466875885478e+00  7.9943663401408767e+00  7.7444157088502656e+00  9.7483820839086324e+00  1.0000000000000000e+01  9.4970836824428577e+00  9.2460592783414448e+00  8.9952744655086931e+00  8.7447017788173778e+00  8.4943181263377596e+00  8.2441033222209867e+00  7.9940392628053054e+00  7.7441094517819673e+00  9.7482313226279409e+00  1.0000000000000000e+01  9.4968271825581798e+00  9.2457335013752768e+00  8.9949075837569605e+00  8.7443149519341965e+00  8.4939269771537411e+00  8.2437192535003181e+00  7.9936705170594360e+00  7.7437619257988803e+00  7.4939765667221190e+00  9.7480838729704775e+00  1.0000000000000000e+01  9.4965719061440197e+00  9.2454040418779826e+00  8.9945312877059269e+00  8.7439133676144767e+00  8.4935167164723815e+00  8.2433129178610116e+00  7.9932775408943595e+00  7.7433892870118219e+00  7.4936293609352989e+00  7.2439809983539432e+00  9.7479428797731771e+00  1.0000000000000000e+01  9.4963246690758076e+00  9.2450810221974553e+00  8.9941581670720936e+00  8.7435111446275364e+00  8.4931021592383473e+00  8.2428991696061775e+00  7.9928747464308518e+00  7.7430051703457456e+00  7.4932697256862779e+00  7.2436501457512161e+00  6.9941301721927687e+00  9.7478102979755850e+00  1.0000000000000000e+01  9.4960899154776879e+00  9.2447713623003818e+00  8.9937972171605782e+00  8.7431187758258773e+00  8.4926946980042910e+00  8.2424897690533836e+00  7.9924738281768422e+00  7.7426208709387012e+00  7.4929083107505088e+00  7.2433163750921734e+00  6.9938276112597819e+00  6.7444264790374335e+00  9.7476873342926833e+00  1.0000000000000002e+01  9.4958705385578845e+00  9.2444797761821906e+00  8.9934548186506582e+00  8.7427439767345394e+00  8.4923029787200459e+00  8.2420938894404028e+00  7.9920841259106163e+00  7.7422455934880423e+00  7.4925539451042678e+00  7.2429879542146960e+00  6.9935289868921195e+00  6.7441605572778185e+00  9.7475747092387444e+00  9.9999999999999982e+00  9.4956683935560360e+00  9.2442094425998427e+00  8.9931354533565457e+00  8.7423923590012471e+00  8.4919334828111772e+00  8.2417185905703256e+00  7.9917129931213280e+00  7.7418867288385123e+00  7.4922138383910131e+00  7.2426717323546770e+00  6.9933855624884700e+00  6.9932406452882958e+00  6.7439031664867626e+00  9.4954846316911325e+00  9.2439624647664438e+00  8.9928422252936375e+00  8.7420679527710270e+00  8.4915910083841162e+00  8.2413692358393167e+00  7.9913661423091975e+00  7.7415501299981146e+00  7.4918937954053062e+00  7.2423733029002335e+00  9.7487632086453555e+00  9.7488140637976191e+00  1.0000000000000002e+01  1.0000000000000000e+01  9.4976863256906228e+00  9.4977572532744219e+00  9.2467811162585072e+00  9.2468599547674266e+00  8.9960498153066570e+00  8.9961306813759716e+00  8.7454881614581375e+00  8.7455678100902752e+00  8.4950879591481065e+00  8.4951644699621500e+00  8.2449109665948299e+00  8.2448387636552170e+00  9.7486503495934436e+00  1.0000000000000000e+01  9.4975160219222303e+00  9.2465830835821201e+00  8.9958409431763666e+00  8.7452785782005815e+00  8.4948839722818441e+00  8.2446443817733481e+00  7.9945467236004131e+00  9.7485100553124813e+00  1.0000000000000000e+01  9.4972915246185892e+00  9.2463116983178892e+00  8.9955469798957779e+00  8.7449779645136942e+00  8.4945872579086856e+00  8.2443586071850259e+00  7.9942765900936719e+00  7.7443265195828452e+00  9.7483587943509971e+00  9.9999999999999982e+00  9.4970403102342011e+00  9.2459991442333198e+00  8.9952009068682219e+00  8.7446180570336107e+00  8.4942273485179225e+00  8.2440083816729786e+00  7.9939427990675451e+00  7.7440138286161462e+00  9.7482054947903780e+00  1.0000000000000002e+01  9.4967793451583216e+00  9.2456674962927643e+00  8.9948271862819524e+00  8.7442237877491351e+00  8.4938284536571498e+00  8.2436165091313693e+00  7.9935663892558262e+00  7.7436589360854482e+00  7.4938769201803712e+00  9.7480554073922736e+00  1.0000000000000000e+01  9.4965193908874070e+00  9.2453318428906943e+00  8.9944436317959653e+00  8.7438142638928280e+00  8.4934098937456994e+00  8.2432017805957276e+00  7.9931651438652818e+00  7.7432783268751759e+00  7.4935221818348987e+00  7.2438796081910768e+00  9.7479117611489414e+00  1.0000000000000000e+01  9.4962674203998780e+00  9.2450025214375362e+00  8.9940630902916219e+00  8.7434038886764220e+00  8.4929867825598730e+00  8.2427793528926561e+00  7.9927537726377622e+00  7.7428859219000055e+00  7.4931546957187765e+00  7.2435414597864387e+00  6.9940296167907174e+00  9.7477765768091391e+00  1.0000000000000000e+01  9.4960280018595000e+00  9.2446866238601082e+00  8.9936947655046566e+00  8.7430033885577370e+00  8.4925707610993477e+00  8.2423612406489433e+00  7.9923442227343120e+00  7.7424932611804067e+00  7.4927853438672214e+00  7.2432002993994455e+00  6.9937203096085421e+00  6.7443295056934343e+00  9.7476511123716545e+00  9.9999999999999982e+00  9.4958041258823442e+00  9.2443890005542659e+00  8.9933452052924103e+00  8.7426206685599066e+00  8.4921706790576401e+00  8.2419568277845574e+00  7.9919460451994127e+00  7.7421097559079195e+00  7.4924231525798142e+00  7.2428645794890478e+00  6.9934150112909039e+00  6.7440576117125444e+00  9.7475361279142287e+00  9.9999999999999982e+00  9.4955977234139528e+00  9.2441129372544424e+00  8.9930190239029688e+00  8.7422614919993471e+00  8.4917931825906958e+00  8.2415733460960716e+00  7.9915667675537998e+00  7.7417429684409900e+00  7.4920754966296332e+00  7.2425413048317910e+00  6.9931202113868816e+00  6.7437944341150420e+00  9.7474320530079819e+00  1.0000000000000000e+01  9.4954100036843609e+00  9.2438606199012341e+00  8.9927194287726060e+00  8.7419300086537266e+00  8.4914432010295595e+00  8.2412162972965444e+00  7.9912122435102626e+00  7.7413988921147441e+00  7.4917483169418855e+00  9.7487495219578015e+00  9.7488008162809425e+00  1.0000000000000000e+01  1.0000000000000000e+01  9.4976601293067606e+00  9.4977317629227347e+00  9.2467439915162153e+00  9.2468237055062854e+00  8.9960035806752412e+00  8.9960854262953998e+00  8.7454347440375351e+00  8.7455154282322471e+00  8.4950292974559556e+00  8.4951068629826381e+00  8.2447767360087401e+00  8.2448499840676615e+00  7.9947335143669225e+00  7.9946653181361800e+00  9.7486355694526257e+00  9.9999999999999982e+00  9.4974880011422851e+00  9.2465436480654049e+00  8.9957920886271001e+00  8.7452223662825208e+00  8.4948224462695112e+00  8.2445795023436634e+00  7.9944803232065098e+00  9.7484937590791656e+00  1.0000000000000000e+01  9.4972609070017349e+00  9.2462689165379768e+00  8.9954942862822076e+00  8.7449176227915313e+00  8.4945214719609030e+00  8.2442894656243251e+00  7.9942060268896400e+00  7.7442562893358842e+00  9.7483407100891792e+00  9.9999999999999982e+00  9.4970065781792972e+00  9.2459522987704545e+00  8.9951435071188079e+00  8.7445526161732943e+00  8.4941562729687572e+00  8.2439339237972309e+00  7.9938670242469811e+00  7.7439385958327014e+00  7.4941329606485532e+00  9.7481854592391031e+00  1.0000000000000000e+01  9.4967421757118764e+00  9.2456161244049984e+00  8.9947645055043832e+0