<?xml version="1.0"?>
<VTKFile type="UnstructuredGrid"  version="0.1"  >
<UnstructuredGrid>
<Piece  NumberOfPoints="7537" NumberOfCells="38188">
<Points>
<DataArray  type="Float64"  NumberOfComponents="3"  format="ascii">0.65 0.375 0  0.675 0.375 0  0.675 0.4 0  0.675 0.4 0.025  0.65 0.4 0  0.7 0.4 0  0.7 0.4 0.025  0.725 0.375 0  0.75 0.375 0  0.75 0.4 0  0.75 0.4 0.025  0.725 0.4 0  0.775 0.375 0  0.775 0.4 0  0.775 0.4 0.025  0.8 0.4 0  0.8 0.4 0.025  0.6 0.4 0  0.625 0.4 0  0.625 0.425 0  0.625 0.425 0.025  0.6 0.425 0  0.65 0.425 0  0.65 0.425 0.025  0.675 0.425 0  0.675 0.425 0.025  0.7 0.425 0  0.7 0.425 0.025  0.725 0.425 0  0.725 0.425 0.025  0.75 0.425 0  0.75 0.425 0.025  0.775 0.425 0  0.775 0.425 0.025  0.8 0.425 0  0.8 0.425 0.025  0.825 0.4 0  0.825 0.425 0  0.825 0.425 0.025  0.85 0.4 0  0.85 0.425 0  0.85 0.425 0.025  0.875 0.4 0  0.875 0.425 0  0.875 0.425 0.025  0.9 0.4 0  0.9 0.425 0  0.9 0.425 0.025  0.925 0.425 0  0.925 0.425 0.025  0.525 0.425 0  0.55 0.425 0  0.55 0.45 0  0.55 0.45 0.025  0.525 0.45 0  0.575 0.425 0  0.575 0.45 0  0.575 0.45 0.025  0.6 0.45 0  0.6 0.45 0.025  0.625 0.45 0  0.625 0.45 0.025  0.65 0.45 0  0.65 0.45 0.025  0.675 0.45 0  0.675 0.45 0.025  0.7 0.45 0  0.7 0.45 0.025  0.725 0.45 0  0.725 0.45 0.025  0.75 0.45 0  0.75 0.45 0.025  0.775 0.45 0  0.775 0.45 0.025  0.8 0.45 0  0.8 0.45 0.025  0.825 0.45 0  0.825 0.45 0.025  0.85 0.45 0  0.85 0.45 0.025  0.875 0.45 0  0.875 0.45 0.025  0.9 0.45 0  0.9 0.45 0.025  0.925 0.45 0  0.925 0.45 0.025  0.95 0.45 0  0.95 0.45 0.025  0.475 0.45 0  0.5 0.45 0  0.5 0.475 0  0.5 0.475 0.025  0.475 0.475 0  0.525 0.475 0  0.525 0.475 0.025  0.55 0.475 0  0.55 0.475 0.025  0.575 0.475 0  0.575 0.475 0.025  0.6 0.475 0  0.6 0.475 0.025  0.625 0.475 0  0.625 0.475 0.025  0.65 0.475 0  0.65 0.475 0.025  0.675 0.475 0  0.675 0.475 0.025  0.7 0.475 0  0.7 0.475 0.025  0.725 0.475 0  0.725 0.475 0.025  0.75 0.475 0  0.75 0.475 0.025  0.775 0.475 0  0.775 0.475 0.025  0.8 0.475 0  0.8 0.475 0.025  0.825 0.475 0  0.825 0.475 0.025  0.85 0.475 0  0.85 0.475 0.025  0.875 0.475 0  0.875 0.475 0.025  0.9 0.475 0  0.9 0.475 0.025  0.925 0.475 0  0.925 0.475 0.025  0.95 0.475 0  0.95 0.475 0.025  0.975 0.45 0  0.975 0.475 0  0.975 0.475 0.025  0.975 0.45 0.025  1 0.45 0  1 0.475 0  1 0.475 0.025  0.425 0.475 0  0.45 0.475 0  0.45 0.5 0  0.45 0.5 0.025  0.425 0.5 0  0.475 0.5 0  0.475 0.5 0.025  0.5 0.5 0  0.5 0.5 0.025  0.525 0.5 0  0.525 0.5 0.025  0.55 0.5 0  0.55 0.5 0.025  0.575 0.5 0  0.575 0.5 0.025  0.6 0.5 0  0.6 0.5 0.025  0.625 0.5 0  0.625 0.5 0.025  0.65 0.5 0  0.65 0.5 0.025  0.675 0.5 0  0.675 0.5 0.025  0.7 0.5 0  0.7 0.5 0.025  0.725 0.5 0  0.725 0.5 0.025  0.75 0.5 0  0.75 0.5 0.025  0.775 0.5 0  0.775 0.5 0.025  0.8 0.5 0  0.8 0.5 0.025  0.825 0.5 0  0.825 0.5 0.025  0.85 0.5 0  0.85 0.5 0.025  0.875 0.5 0  0.875 0.5 0.025  0.9 0.5 0  0.9 0.5 0.025  0.925 0.5 0  0.925 0.5 0.025  0.95 0.5 0  0.95 0.5 0.025  0.975 0.5 0  0.975 0.5 0.025  1 0.5 0  1 0.5 0.025  0.45 0.525 0  0.45 0.525 0.025  0.425 0.525 0  0.475 0.525 0  0.475 0.525 0.025  0.5 0.525 0  0.5 0.525 0.025  0.525 0.525 0  0.525 0.525 0.025  0.55 0.525 0  0.55 0.525 0.025  0.575 0.525 0  0.575 0.525 0.025  0.6 0.525 0  0.6 0.525 0.025  0.625 0.525 0  0.625 0.525 0.025  0.65 0.525 0  0.65 0.525 0.025  0.675 0.525 0  0.675 0.525 0.025  0.7 0.525 0  0.7 0.525 0.025  0.725 0.525 0  0.725 0.525 0.025  0.75 0.525 0  0.75 0.525 0.025  0.775 0.525 0  0.775 0.525 0.025  0.8 0.525 0  0.8 0.525 0.025  0.825 0.525 0  0.825 0.525 0.025  0.85 0.525 0  0.85 0.525 0.025  0.875 0.525 0  0.875 0.525 0.025  0.9 0.525 0  0.9 0.525 0.025  0.925 0.525 0  0.925 0.525 0.025  0.95 0.525 0  0.95 0.525 0.025  0.975 0.525 0  0.975 0.525 0.025  1 0.525 0  1 0.525 0.025  0.45 0.55 0  0.45 0.55 0.025  0.425 0.525 0.025  0.425 0.55 0  0.425 0.55 0.025  0.475 0.55 0  0.475 0.55 0.025  0.5 0.55 0  0.5 0.55 0.025  0.525 0.55 0  0.525 0.55 0.025  0.55 0.55 0  0.55 0.55 0.025  0.575 0.55 0  0.575 0.55 0.025  0.6 0.55 0  0.6 0.55 0.025  0.625 0.55 0  0.625 0.55 0.025  0.65 0.55 0  0.65 0.55 0.025  0.675 0.55 0  0.675 0.55 0.025  0.7 0.55 0  0.7 0.55 0.025  0.725 0.55 0  0.725 0.55 0.025  0.75 0.55 0  0.75 0.55 0.025  0.775 0.55 0  0.775 0.55 0.025  0.8 0.55 0  0.8 0.55 0.025  0.825 0.55 0  0.825 0.55 0.025  0.85 0.55 0  0.85 0.55 0.025  0.875 0.55 0  0.875 0.55 0.025  0.9 0.55 0  0.9 0.55 0.025  0.925 0.55 0  0.925 0.55 0.025  0.95 0.55 0  0.95 0.55 0.025  0.975 0.55 0  0.975 0.55 0.025  1 0.55 0  1 0.55 0.025  0.45 0.575 0  0.45 0.575 0.025  0.475 0.575 0  0.475 0.575 0.025  0.5 0.575 0  0.5 0.575 0.025  0.525 0.575 0  0.525 0.575 0.025  0.55 0.575 0  0.55 0.575 0.025  0.575 0.575 0  0.575 0.575 0.025  0.6 0.575 0  0.6 0.575 0.025  0.625 0.575 0  0.625 0.575 0.025  0.65 0.575 0  0.65 0.575 0.025  0.675 0.575 0  0.675 0.575 0.025  0.7 0.575 0  0.7 0.575 0.025  0.725 0.575 0  0.725 0.575 0.025  0.75 0.575 0  0.75 0.575 0.025  0.775 0.575 0  0.775 0.575 0.025  0.8 0.575 0  0.8 0.575 0.025  0.825 0.575 0  0.825 0.575 0.025  0.85 0.575 0  0.85 0.575 0.025  0.875 0.575 0  0.875 0.575 0.025  0.9 0.575 0  0.9 0.575 0.025  0.925 0.575 0  0.925 0.575 0.025  0.95 0.575 0  0.95 0.575 0.025  0.975 0.575 0  0.975 0.575 0.025  1 0.575 0  1 0.575 0.025  0.475 0.6 0  0.475 0.6 0.025  0.5 0.6 0  0.5 0.6 0.025  0.525 0.6 0  0.525 0.6 0.025  0.55 0.6 0  0.55 0.6 0.025  0.575 0.6 0  0.575 0.6 0.025  0.6 0.6 0  0.6 0.6 0.025  0.625 0.6 0  0.625 0.6 0.025  0.65 0.6 0  0.65 0.6 0.025  0.675 0.6 0  0.675 0.6 0.025  0.7 0.6 0  0.7 0.6 0.025  0.725 0.6 0  0.725 0.6 0.025  0.75 0.6 0  0.75 0.6 0.025  0.775 0.6 0  0.775 0.6 0.025  0.8 0.6 0  0.8 0.6 0.025  0.825 0.6 0  0.825 0.6 0.025  0.85 0.6 0  0.85 0.6 0.025  0.875 0.6 0  0.875 0.6 0.025  0.9 0.6 0  0.9 0.6 0.025  0.925 0.6 0  0.925 0.6 0.025  0.95 0.6 0  0.95 0.6 0.025  0.975 0.6 0  0.975 0.6 0.025  1 0.6 0  1 0.6 0.025  0.5 0.625 0  0.5 0.625 0.025  0.475 0.625 0.025  0.525 0.625 0  0.525 0.625 0.025  0.55 0.625 0  0.55 0.625 0.025  0.575 0.625 0  0.575 0.625 0.025  0.6 0.625 0  0.6 0.625 0.025  0.625 0.625 0  0.625 0.625 0.025  0.65 0.625 0  0.65 0.625 0.025  0.675 0.625 0  0.675 0.625 0.025  0.7 0.625 0  0.7 0.625 0.025  0.725 0.625 0  0.725 0.625 0.025  0.75 0.625 0  0.75 0.625 0.025  0.775 0.625 0  0.775 0.625 0.025  0.8 0.625 0  0.8 0.625 0.025  0.825 0.625 0  0.825 0.625 0.025  0.85 0.625 0  0.85 0.625 0.025  0.875 0.625 0  0.875 0.625 0.025  0.9 0.625 0  0.9 0.625 0.025  0.925 0.625 0  0.925 0.625 0.025  0.95 0.625 0  0.95 0.625 0.025  0.975 0.625 0  0.975 0.625 0.025  1 0.625 0  1 0.625 0.025  0.525 0.65 0  0.525 0.65 0.025  0.5 0.65 0  0.5 0.65 0.025  0.55 0.65 0  0.55 0.65 0.025  0.575 0.65 0  0.575 0.65 0.025  0.6 0.65 0  0.6 0.65 0.025  0.625 0.65 0  0.625 0.65 0.025  0.65 0.65 0  0.65 0.65 0.025  0.675 0.65 0  0.675 0.65 0.025  0.7 0.65 0  0.7 0.65 0.025  0.725 0.65 0  0.725 0.65 0.025  0.75 0.65 0  0.75 0.65 0.025  0.775 0.65 0  0.775 0.65 0.025  0.8 0.65 0  0.8 0.65 0.025  0.825 0.65 0  0.825 0.65 0.025  0.85 0.65 0  0.85 0.65 0.025  0.875 0.65 0  0.875 0.65 0.025  0.9 0.65 0  0.9 0.65 0.025  0.925 0.65 0  0.925 0.65 0.025  0.95 0.65 0  0.95 0.65 0.025  0.975 0.65 0  0.975 0.65 0.025  1 0.65 0  1 0.65 0.025  0.525 0.675 0  0.525 0.675 0.025  0.5 0.675 0  0.5 0.675 0.025  0.55 0.675 0  0.55 0.675 0.025  0.575 0.675 0  0.575 0.675 0.025  0.6 0.675 0  0.6 0.675 0.025  0.625 0.675 0  0.625 0.675 0.025  0.65 0.675 0  0.65 0.675 0.025  0.675 0.675 0  0.675 0.675 0.025  0.7 0.675 0  0.7 0.675 0.025  0.725 0.675 0  0.725 0.675 0.025  0.75 0.675 0  0.75 0.675 0.025  0.775 0.675 0  0.775 0.675 0.025  0.8 0.675 0  0.8 0.675 0.025  0.825 0.675 0  0.825 0.675 0.025  0.85 0.675 0  0.85 0.675 0.025  0.875 0.675 0  0.875 0.675 0.025  0.9 0.675 0  0.9 0.675 0.025  0.925 0.675 0  0.925 0.675 0.025  0.95 0.675 0  0.95 0.675 0.025  0.975 0.675 0  0.975 0.675 0.025  1 0.675 0  1 0.675 0.025  0.525 0.7 0.025  0.55 0.7 0  0.55 0.7 0.025  0.575 0.7 0  0.575 0.7 0.025  0.6 0.7 0  0.6 0.7 0.025  0.625 0.7 0  0.625 0.7 0.025  0.65 0.7 0  0.65 0.7 0.025  0.675 0.7 0  0.675 0.7 0.025  0.7 0.7 0  0.7 0.7 0.025  0.725 0.7 0  0.725 0.7 0.025  0.75 0.7 0  0.75 0.7 0.025  0.775 0.7 0  0.775 0.7 0.025  0.8 0.7 0  0.8 0.7 0.025  0.825 0.7 0  0.825 0.7 0.025  0.85 0.7 0  0.85 0.7 0.025  0.875 0.7 0  0.875 0.7 0.025  0.9 0.7 0  0.9 0.7 0.025  0.925 0.7 0  0.925 0.7 0.025  0.95 0.7 0  0.95 0.7 0.025  0.975 0.7 0  0.975 0.7 0.025  1 0.7 0  1 0.7 0.025  0.575 0.725 0  0.575 0.725 0.025  0.6 0.725 0  0.6 0.725 0.025  0.625 0.725 0  0.625 0.725 0.025  0.65 0.725 0  0.65 0.725 0.025  0.675 0.725 0  0.675 0.725 0.025  0.7 0.725 0  0.7 0.725 0.025  0.725 0.725 0  0.725 0.725 0.025  0.75 0.725 0  0.75 0.725 0.025  0.775 0.725 0  0.775 0.725 0.025  0.8 0.725 0  0.8 0.725 0.025  0.825 0.725 0  0.825 0.725 0.025  0.85 0.725 0  0.85 0.725 0.025  0.875 0.725 0  0.875 0.725 0.025  0.9 0.725 0  0.9 0.725 0.025  0.925 0.725 0  0.925 0.725 0.025  0.95 0.725 0  0.95 0.725 0.025  0.975 0.725 0  0.975 0.725 0.025  1 0.725 0  1 0.725 0.025  0.6 0.75 0  0.6 0.75 0.025  0.575 0.75 0  0.625 0.75 0  0.625 0.75 0.025  0.65 0.75 0  0.65 0.75 0.025  0.675 0.75 0  0.675 0.75 0.025  0.7 0.75 0  0.7 0.75 0.025  0.725 0.75 0  0.725 0.75 0.025  0.75 0.75 0  0.75 0.75 0.025  0.775 0.75 0  0.775 0.75 0.025  0.8 0.75 0  0.8 0.75 0.025  0.825 0.75 0  0.825 0.75 0.025  0.85 0.75 0  0.85 0.75 0.025  0.875 0.75 0  0.875 0.75 0.025  0.9 0.75 0  0.9 0.75 0.025  0.925 0.75 0  0.925 0.75 0.025  0.95 0.75 0  0.95 0.75 0.025  0.975 0.75 0  0.975 0.75 0.025  1 0.75 0  1 0.75 0.025  0.6 0.775 0  0.6 0.775 0.025  0.625 0.775 0  0.625 0.775 0.025  0.65 0.775 0  0.65 0.775 0.025  0.675 0.775 0  0.675 0.775 0.025  0.7 0.775 0  0.7 0.775 0.025  0.725 0.775 0  0.725 0.775 0.025  0.75 0.775 0  0.75 0.775 0.025  0.775 0.775 0  0.775 0.775 0.025  0.8 0.775 0  0.8 0.775 0.025  0.825 0.775 0  0.825 0.775 0.025  0.85 0.775 0  0.85 0.775 0.025  0.875 0.775 0  0.875 0.775 0.025  0.9 0.775 0  0.9 0.775 0.025  0.925 0.775 0  0.925 0.775 0.025  0.95 0.775 0  0.95
[...]
<PointData  Scalars="f_8"> 
<DataArray  type="Float64"  Name="f_8"  format="ascii">3.5036650944043948e+00  3.2541263752512100e+00  3.2541871596894509e+00  3.2542256810132373e+00  3.5037186919914989e+00  3.0045867788507143e+00  3.0046310478049847e+00  2.7548344833357095e+00  2.5050592118558637e+00  2.5051348635337676e+00  2.5051906464867097e+00  2.7549064951346156e+00  2.2551823906687511e+00  2.2552600817878918e+00  2.2553214967206285e+00  2.0052700759824065e+00  2.0053368842702404e+00  4.0026175106695909e+00  3.7531920413643576e+00  3.7532277055812417e+00  3.7532553717774944e+00  4.0026463661916791e+00  3.5037606495014062e+00  3.5037940350345158e+00  3.2542347654586981e+00  3.2542739348207546e+00  3.0046392467952967e+00  3.0046842494142960e+00  2.7549628871778071e+00  2.7550137412513673e+00  2.5051940805120712e+00  2.5052507505449655e+00  2.2553208579312489e+00  2.2553832230747415e+00  2.0053309790755294e+00  2.0053987875282280e+00  1.7551526639878809e+00  1.7552121037091430e+00  1.7552849050496686e+00  1.5048958370623657e+00  1.5049520843770783e+00  1.5050291250115397e+00  1.2544882258074719e+00  1.2545394466658657e+00  1.2546194992443107e+00  1.0039198659483681e+00  1.0039641729724054e+00  1.0040452366378430e+00  7.5321900973360423e-01  7.5329772686975471e-01  4.7507116681971535e+00  4.5013786295812892e+00  4.5013883818088134e+00  4.5013994009562968e+00  4.7507158837356620e+00  4.2520267325916929e+00  4.2520418871607246e+00  4.2520585115738099e+00  4.0026667143289414e+00  4.0026889950645899e+00  3.7532529588584871e+00  3.7532809578243320e+00  3.5037904332735570e+00  3.5038242170461444e+00  3.2542686113948625e+00  3.2543082425616126e+00  3.0046765850875259e+00  3.0047221103039958e+00  2.7550030392007780e+00  2.7550544727511359e+00  2.5052362529232215e+00  2.5052935539335159e+00  2.2553641394396173e+00  2.2554271798360772e+00  2.0053743413585821e+00  2.0054428598207803e+00  1.7552544082068768e+00  1.7553279419667616e+00  1.5049920969307959e+00  1.5050698765605151e+00  1.2545758622008001e+00  1.2546566401570334e+00  1.0039956527029028e+00  1.0040774022967083e+00  7.5324423387769146e-01  7.5332356386630406e-01  5.0231950759719024e-01  5.0239035539590027e-01  5.2493519760735596e+00  5.0000339288377784e+00  5.0000324506651745e+00  5.0000323434599894e+00  5.2493471439284285e+00  4.7507177652325376e+00  4.7507232503572192e+00  4.5013935867464889e+00  4.5014046823128515e+00  4.2520503363812612e+00  4.2520670781650942e+00  4.0026782836771400e+00  4.0027007224143514e+00  3.7532674761604783e+00  3.7532956732393754e+00  3.5038076745410023e+00  3.5038416957361722e+00  3.2542882965142459e+00  3.2543282032200409e+00  3.0046983733491506e+00  3.0047442105029036e+00  2.7550265251332959e+00  2.7550783046143903e+00  2.5052609630254872e+00  2.5053186406777241e+00  2.2553895305389515e+00  2.2554529739052289e+00  2.0053998014667305e+00  2.0054687434801108e+00  1.7552792608845544e+00  1.7553532313552767e+00  1.5050156103029990e+00  1.5050938303204138e+00  1.2545972638932861e+00  1.2546784738587520e+00  1.0040141521297585e+00  1.0040963099736337e+00  7.5325905361102374e-01  7.5333874811131807e-01  5.0232992630482021e-01  5.0240106775943449e-01  2.5122899901519835e-01  2.5123441058285595e-01  2.5128475545305146e-01  2.5127916143066731e-01  0.0000000000000000e+00  0.0000000000000000e+00  0.0000000000000000e+00  5.7480146189219905e+00  5.4986713431678345e+00  5.4986676561642458e+00  5.4986563092199159e+00  5.7480099153299307e+00  5.2493445071840901e+00  5.2493387872191342e+00  5.0000308836741523e+00  5.0000307708361964e+00  4.7507172737907473e+00  4.7507227672055601e+00  4.5013941630821419e+00  4.5014052808266314e+00  4.2520519589327765e+00  4.2520687367144960e+00  4.0026809165324391e+00  4.0027034049731434e+00  3.7532710681910131e+00  3.7532993284990384e+00  3.5038121582859740e+00  3.5038462559625350e+00  3.2542935868961451e+00  3.2543335829331097e+00  3.0047043663321129e+00  3.0047503050908779e+00  2.7550330964711360e+00  2.7550849890281346e+00  2.5052679672863887e+00  2.5053257683919634e+00  2.2553968006377301e+00  2.2554603763762651e+00  2.0054071489815564e+00  2.0054762303750686e+00  1.7552864774808092e+00  1.7553605918717532e+00  1.5050224706313919e+00  1.5051008359557509e+00  1.2546035303742864e+00  1.2546848830239883e+00  1.0040195820938600e+00  1.0041018748834913e+00  7.5326340937060854e-01  7.5334322443416268e-01  5.0233298899137324e-01  5.0240422761503478e-01  2.5123599929732993e-01  2.5128640455281143e-01  0.0000000000000000e+00  0.0000000000000000e+00  5.4986684538327451e+00  5.4986571283367249e+00  5.7480119077924732e+00  5.2493440854803186e+00  5.2493383735904855e+00  5.0000292333283820e+00  5.0000291151612730e+00  4.7507144005813631e+00  4.7507198752571407e+00  4.5013900879860556e+00  4.5014011736028712e+00  4.2520467186819948e+00  4.2520634510034974e+00  4.0026745645524020e+00  4.0026969943060378e+00  3.7532636758745066e+00  3.7532918644456168e+00  3.5038038165314096e+00  3.5038378296984787e+00  3.2542844078093038e+00  3.2543243069783125e+00  3.0046944849557411e+00  3.0047403150835836e+00  2.7550226723666382e+00  2.7550744453595879e+00  2.5052571857474493e+00  2.5053148574819453e+00  2.2553858732687915e+00  2.2554493113233773e+00  2.0053963133274766e+00  2.0054652506698889e+00  1.7552759953513173e+00  1.7553499618203074e+00  1.5050126247273907e+00  1.5050908414284736e+00  1.2545946187914008e+00  1.2546758261231621e+00  1.0040119102396421e+00  1.0040940661048379e+00  7.5325727874759130e-01  7.5333697186870197e-01  5.0232868206263803e-01  5.0239982265805005e-01  2.5123375895592509e-01  2.5128410340470742e-01  0.0000000000000000e+00  0.0000000000000000e+00  5.4986737133088344e+00  5.4986624641181949e+00  5.7479949310625891e+00  5.7480205597435035e+00  5.7480036997713233e+00  5.2493458704149072e+00  5.2493401942021150e+00  5.0000275060037165e+00  5.0000273828040491e+00  4.7507091666253647e+00  4.7507145955535330e+00  4.5013813965441090e+00  4.5013923957698907e+00  4.2520346637592024e+00  4.2520512692164489e+00  4.0026592874651801e+00  4.0026815501922490e+00  3.7532453686887561e+00  3.7532733505860700e+00  3.5037827262932066e+00  3.5038164939443215e+00  3.2542608412897587e+00  3.2543004573051482e+00  3.0046688135317381e+00  3.0047143246066033e+00  2.7549953365428110e+00  2.7550467570164661e+00  2.5052286986936778e+00  2.5052859877597684e+00  2.2553568226062621e+00  2.2554198522656610e+00  2.0053673602523432e+00  2.0054358692583176e+00  1.7552478700473426e+00  1.7553213956940026e+00  1.5049861168945966e+00  1.5050638897919488e+00  1.2545705620027157e+00  1.2546513346071737e+00  1.0039911586973689e+00  1.0040729042689629e+00  7.5324067473466960e-01  7.5332000192163862e-01  5.0231701165466303e-01  5.0238785771224437e-01  2.5122769145192536e-01  2.5127785301755529e-01  0.0000000000000000e+00  0.0000000000000000e+00  5.4986833549149940e+00  5.4986722367024194e+00  5.2493498252940469e+00  5.2493442122579221e+00  5.0000257091416387e+00  5.0000255811983836e+00  4.7507016233519517e+00  4.7507069796097925e+00  4.5013681827274601e+00  4.5013790414632648e+00  4.2520159279487535e+00  4.2520323253520438e+00  4.0026352548903121e+00  4.0026572424732700e+00  3.7532163469213198e+00  3.7532439873818859e+00  3.5037491122681397e+00  3.5037824734545482e+00  3.2542231292411121e+00  3.2542622756794564e+00  3.0046276032367656e+00  3.0046725844157014e+00  2.7549513410723971e+00  2.7550021752755889e+00  2.5051827506445825e+00  2.5052394024839755e+00  2.2553098775457947e+00  2.2553722262930394e+00  2.0053204958508797e+00  2.0053882898261515e+00  1.7552022791233806e+00  1.7552750680117020e+00  1.5049430923638416e+00  1.5050201226424205e+00  1.2545314715033322e+00  1.2546115158356439e+00  1.0039574064049459e+00  1.0040384638685589e+00  7.5321364740103280e-01  7.5329236022189594e-01  5.0229800467834451e-01  5.0236835574245164e-01  2.5121780725412146e-01  2.5126766118690030e-01  0.0000000000000000e+00  0.0000000000000000e+00  5.2493558841740935e+00  5.2493503616266830e+00  5.0000238514242623e+00  5.0000237190194667e+00  4.7506918539094345e+00  4.7506971107469251e+00  4.5013506018578058e+00  4.5013612663329869e+00  4.2519907343388406e+00  4.2520068429352920e+00  4.0026027512066786e+00  4.0026243560031816e+00  3.7531769477813324e+00  3.7532041124628286e+00  3.5037033541925573e+00  3.5037361482167353e+00  3.2541716820035265e+00  3.2542101723887149e+00  3.0045712817980452e+00  3.0046155217312545e+00  2.7548911170136141e+00  2.7549411300747826e+00  2.5051197616900192e+00  2.5051755198519010e+00  2.2552454334049221e+00  2.2553068259146922e+00  2.0052560782189679e+00  2.0053228666350176e+00  1.7551395332856605e+00  1.7552112845668675e+00  1.5048838074685813e+00  1.5049597903557679e+00  1.2544775462060083e+00  1.2545565618731334e+00  1.0039107961742624e+00  1.0039908802923259e+00  7.5317628907305567e-01  7.5325413162886157e-01  5.0227171211078681e-01  5.0234136105100258e-01  2.5120412694978977e-01  2.5125354395626748e-01  0.0000000000000000e+00  0.0000000000000000e+00  5.0000219429645396e+00  5.0000218063751625e+00  5.2493585451946210e+00  4.7506799751637958e+00  4.7506851061259185e+00  4.5013288744490314e+00  4.5013392914550616e+00  4.2519594010650614e+00  4.2519751408657251e+00  4.0025621832680560e+00  4.0025832985034491e+00  3.7531276551493398e+00  3.7531542105499955e+00  3.5036459986563466e+00  3.5036780654710964e+00  3.2541070922005773e+00  3.2541447403235004e+00  3.0045004692498964e+00  3.0045437562528909e+00  2.7548152918320281e+00  2.7548642477079590e+00  2.5050403461899373e+00  2.5050949519760737e+00  2.2551640713616941e+00  2.2552242287627773e+00  2.0051746369531762e+00  2.0052401242576350e+00  1.7550600951748867e+00  1.7551305013974225e+00  1.5048086469016206e+00  1.5048832694645504e+00  1.2544090874233189e+00  1.2544867645112348e+00  1.0038515468130245e+00  1.0039303619019122e+00  7.5312874326078461e-01  7.5320544903931186e-01  5.0223821468541463e-01  5.0230694480498095e-01  2.5118668391838367e-01  2.5123552814801853e-01  0.0000000000000000e+00  0.0000000000000000e+00  4.7506661402743307e+00  4.7506711193731697e+00  5.0000199955038491e+00  5.0000198550045303e+00  4.5013032912182842e+00  4.5013134084416375e+00  4.2519223488572289e+00  4.2519376411130727e+00  4.0025140906113545e+00  4.0025346109703710e+00  3.7530691125718971e+00  3.7530949266997933e+00  3.5035777749736634e+00  3.5036089558792551e+00  3.2540301534987437e+00  3.2540667740800417e+00  3.0044159994710635e+00  3.0044581220780220e+00  2.7547247134349044e+00  2.7547723752677067e+00  2.5049453388158636e+00  2.5049985313447571e+00  2.2550665857825622e+00  2.2551252253285279e+00  2.0050769008207534e+00  2.0051407856184169e+00  1.7549646062578712e+00  1.7550333519804484e+00  1.5047181486258927e+00  1.5047910877746487e+00  1.2543265206503573e+00  1.2544025371361431e+00  1.0037799708489179e+00  1.0038572077095704e+00  7.5307121775875840e-01  7.5314650632252345e-01  5.0219763125516259e-01  5.0226521316043504e-01  2.5116552825822741e-01  2.5121365507492188e-01  0.0000000000000000e+00  0.0000000000000000e+00  4.7506505416827975e+00  4.7506553436342065e+00  5.0000180226073061e+00  5.0000178784738232e+00  4.5012742189571000e+00  4.5012839854413906e+00  4.2518801099504495e+00  4.2518948778237302e+00  4.0024591576143695e+00  4.0024789800958409e+00  3.7530021388889621e+00  3.7530270822630700e+00  3.5034996144749861e+00  3.5035297532164065e+00  3.2539418836758949e+00  3.2539772934942217e+00  3.0043189469935725e+00  3.0043596950345131e+00  2.7546204804676977e+00  2.7546666115110514e+00  2.5048358278015290e+00  2.5048873446671291e+00  2.2549540195669269e+00  2.2550108548979044e+00  2.0049638340008142e+00  2.0050258087851565e+00  1.7548539224759583e+00  1.7549206833466471e+00  1.5046130372640534e+00  1.5046839580906013e+00  1.2542304250414273e+00  1.2543044443710345e+00  1.0036964986923076e+00  1.0037718315145034e+00  7.5300400258771993e-01  7.5307757605444170e-01  5.0215013025938759e-01  5.0221631840268244e-01  2.5114073215834098e-01  2.5118798560701827e-01  0.0000000000000000e+00  0.0000000000000000e+00  4.7506380148304412e+00  4.5012421068316959e+00  4.5012514736006155e+00  4.2518333377429363e+00  4.2518475072228998e+00  4.0023982268281388e+00  4.0024172519309635e+00  3.7529277456039534e+00  3.7529516926766489e+00  3.5034126722721051e+00  3.5034416166501501e+00  3.2538435510640489e+00  3.2538775706898817e+00  3.0042106582475228e+00  3.0042498246172515e+00  2.7545039782303271e+00  2.7545483435409084e+00  2.5047131950462718e+00  2.5047627737923306e+00  2.2548277075139556e+00  2.2548824497491879e+00  2.0048366813046266e+00  2.0048964329860328e+00  1.7547291594451502e+00  1.7547936019814461e+00  1.5044942670646719e+00  1.5045628217180922e+00  1.2541215718306384e+00  1.2541932408032239e+00  1.0036017104477519e+00  1.0036747937478265e+00  7.5292749376389656e-01  7.5299903304984650e-01  5.0209594493922138e-01  5.0216047373314265e-01  2.5111239700266186e-01  2.5115860685489244e-01  0.0000000000000000e+00  0.0000000000000000e+00  4.2517828163700742e+00  4.2517963174841080e+00  4.0023323124257590e+00  4.0023504457386130e+00  3.7528471547560276e+00  3.7528699858544976e+00  3.5033183501377767e+00  3.5033459542605656e+00  3.2537367029771800e+00  3.2537691592725615e+00  3.0040927859315030e+00  3.0041301692489366e+00  2.7543769191113476e+00  2.7544192882452672e+00  2.5045791623164888e+00  2.5046265430078116e+00  2.2546893274335216e+00  2.2547416874122534e+00  2.0046970226646170e+00  2.0047542342366320e+00  1.7545917480844611e+00  1.7546535304970075e+00  1.5043630758251563e+00  1.5044289032347820e+00  1.2540009733837973e+00  1.2540699205834502e+00  1.0034963770860115e+00  1.0035668428095237e+00  7.5284222433444203e-01  7.5291138516051637e-01  5.0203539325591706e-01  5.0209797264222278e-01  2.5108066263118783e-01  2.5112564085572142e-01  0.0000000000000000e+00  0.0000000000000000e+00  4.0022626123720295e+00  4.0022797666428680e+00  4.2517294691170049e+00  3.7527618156228884e+00  3.7527834195139760e+00  3.5032183186175967e+00  3.5032444459320757e+00  3.2536231941264213e+00  3.2536539236930246e+00  3.0039673245274749e+00  3.0040027329188912e+00  2.7542413857439376e+00  2.7542815367509030e+00  2.5044358421327946e+00  2.5044807713805350e+00  2.2545409581800979e+00  2.2545906502718842e+00  2.0045468368409267e+00  2.0046011906587804e+00  1.7544435014870337e+00  1.7545022760486559e+00  1.5042210514040855e+00  1.5042837783353527e+00  1.2538699450997177e+00  1.2539357802813551e+00  1.0033815133754416e+00  1.0034489684259424e+00  7.5274890478020617e-01  7.5281531350582032e-01  5.0196890393663196e-01  5.0202921428306668e-01  2.5104571939064124e-01  2.5108925583970965e-01  0.0000000000000000e+00  0.0000000000000000e+00  4.0021905175320169e+00  4.0022066152952309e+00  3.7526734180713084e+00  3.7526936952594716e+00  3.5031145358444964e+00  3.5031390630985975e+00  3.2535052122385273e+00  3.2535340660173531e+00  3.0038366440643309e+00  3.0038699003406362e+00  2.7540998740807048e+00  2.7541375991480628e+00  2.5042857908998615e+00  2.5043280277894224e+00  2.2543851428411754e+00  2.2544318908795380e+00  2.0043885735699885e+00  2.0044397568971775e+00  1.7542866934948544e+00  1.7543421111874928e+00  1.5040702125810164e+00  1.5041294567774055e+00  1.2537301829896057e+00  1.2537924981020085e+00  1.0032584459207852e+00  1.0033224706111508e+00  7.5264847588871298e-01  7.5271172537813447e-01  5.0189705081629599e-01  5.0195473702670335e-01  2.5100782393801502e-01  2.5104968096229063e-01  0.0000000000000000e+00  0.0000000000000000e+00  3.7525838997977043e+00  3.7526027666656265e+00  3.5030092597645872e+00  3.5030320820556065e+00  3.2533852971194759e+00  3.2534121463601902e+00  3.0037035180370757e+00  3.0037344665667263e+00  2.7539553321808818e+00  2.7539904453387951e+00  2.5041320602910258e+00  2.5041713847621452e+00  2.2542249537553212e+00  2.2542684998090459e+00  2.0042252320147020e+00  2.0042729457312545e+00  1.7541241485224111e+00  1.7541758670216852e+00  1.5039131058043016e+00  1.5039684823797543e+00  1.2535838603678180e+00  1.2536422333550112e+00  1.0031289009533153e+00  1.0031890493046445e+00  7.5254217875311757e-01  7.5260182477190152e-01  5.0182059887526309e-01  5.0187526367292756e-01  2.5096732031341257e-01  2.5100722591192576e-01  0.0000000000000000e+00  0.0000000000000000e+00  3.5029050496458334e+00  3.5029260866975798e+00  3.2532663482698685e+00  3.2532910920814126e+00  3.0035711399026512e+00  3.0035996554908708e+00  2.7538111886402494e+00  2.7538435359774911e+00  2.5039782406886881e+00  2.5040144650059815e+00  2.2540640536019501e+00  2.2541041704674165e+00  2.0040604409821365e+00  2.0041044126342409e+00  1.7539593402279099e+00  1.7540070367242244e+00  1.5037529183604303e+00  1.5038040512166020e+00  1.2534337474194739e+00  1.2534877506918332e+00  1.0029951182076910e+00  1.0030509217995929e+00  7.5243164900543547e-01  7.5248720825559368e-01  5.0174056750633245e-01  5.0179176409118242e-01  2.5092466877973707e-01  2.5096230775951656e-01  0.0000000000000000e+00  0.0000000000000000e+00  3.2531516149600428e+00  3.2531741895771189e+00  3.5028047519256322e+00  3.5028239556639691e+00  3.0034431208750498e+00  3.0034691198882038e+00  2.7536713622865423e+00  2.7537008350769994e+00  2.5038284875030694e+00  2.5038614714573422e+00  2.2539067432101341e+00  2.2539432516075175e+00  2.0038985324271654e+00  2.0039385350614900e+00  1.7537964928921772e+00  1.7538398837581743e+00  1.5035936058354042e+00  1.5036401467132332e+00  1.2532833567871913e+00  1.2533325734302516e+00  1.0028599991687579e+00  1.0029109776352498e+00  7.5231904629564839e-01  7.5236999846070785e-01  5.0165832043894254e-01  5.0170554538289969e-01  2.5088048680179120e-01  2.5091548931017515e-01  0.0000000000000000e+00  0.0000000000000000e+00  3.2530446616733686e+00  3.2530650512321664e+00  3.0033234601089371e+00  3.0033469137098669e+00  2.7535402422562560e+00  2.7535667930108843e+00  2.5036875175724487e+00  2.5037171876923026e+00  2.2537579818521047e+00  2.2537907730382325e+00  2.0037445937216525e+00  2.0037804718783798e+00  1.7536406727653573e+00  1.7536795423760030e+00  1.5034400258850800e+00  1.5034816845297851e+00  1.2531371151798225e+00  1.2531811675867790e+00  1.0027272994196408e+00  1.0027729830148111e+00  7.5220723615179808e-01  7.5225303485974759e-01  5.0157569926514489e-01  5.0161838822071059e-01  2.5083561048784542e-01  2.5086753738261769e-01  0.0000000000000000e+00  0.0000000000000000e+00  3.0032164776452164e+00  3.0032374254037921e+00  2.7534226257893093e+00  2.7534462854964588e+00  2.5035605594816768e+00  2.5035869306806342e+00  2.2536233602703040e+00  2.2536524229153998e+00  2.0036044761057572e+00  2.0036361786376493e+00  1.7534978462382289e+00  1.7535320859990156e+00  1.5032980590650153e+00  1.5033346476526674e+00  1.2530005522328092e+00  1.2530391490232131e+00  1.0026018733481659e+00  1.0026418461182709e+00  7.5210005036589200e-01  7.5214015261589218e-01  5.0149523287619213e-01  5.0153276582852724e-01  2.5079119427578561e-01  2.5081951981377432e-01  0.0000000000000000e+00  0.0000000000000000e+00  2.7533236033048198e+00  2.7533444903883537e+00  2.5034532421110125e+00  2.5034764318136578e+00  2.2535090041716246e+00  2.2535344454669026e+00  2.0034847297657494e+00  2.0035123400461421e+00  1.7533748690876942e+00  1.7534045189147016e+00  1.5031746796106107e+00  1.5032061670058603e+00  1.2528804788553067e+00  1.2529134811326241e+00  1.0024899691032727e+00  1.0025239411215243e+00  7.5200266289853090e-01  7.5203659225101904e-01  5.0142048808056516e-01  5.0145221974743803e-01  2.5074889316340088e-01  2.5077298971553141e-01  0.0000000000000000e+00  0.0000000000000000e+00  2.5033714243932677e+00  2.5033916105285590e+00  2.7532483994399675e+00  2.7532666754602975e+00  2.2534214020064378e+00  2.2534434115743780e+00  2.0033924462261337e+00  2.0034161567984610e+00  1.7532793711210164e+00  1.7533046110427146e+00  1.5030779248876298e+00  1.5031044525962796e+00  1.2527850993229042e+00  1.2528125681042255e+00  1.0023995433637849e+00  1.0024274319567705e+00  7.5192212333323771e-01  7.5194957229596227e-0