<?xml version="1.0"?>
<VTKFile type="UnstructuredGrid"  version="0.1"  >
<UnstructuredGrid>
<Piece  NumberOfPoints="7656" NumberOfCells="39114">
<Points>
<DataArray  type="Float64"  NumberOfComponents="3"  format="ascii">0 0 0  0.025 0 0  0.025 0.025 0  0.025 0.025 0.025  0.025 0 0.025  0 0 0.025  0 0.025 0  0 0.025 0.025  0.05 0 0  0.05 0.025 0  0.05 0.025 0.025  0.05 0 0.025  0.075 0 0  0.075 0.025 0  0.075 0.025 0.025  0.075 0 0.025  0.1 0 0  0.1 0.025 0  0.1 0.025 0.025  0.1 0 0.025  0.125 0 0  0.125 0.025 0  0.125 0.025 0.025  0.125 0 0.025  0.15 0 0  0.15 0.025 0  0.15 0.025 0.025  0.15 0 0.025  0.175 0 0  0.175 0.025 0  0.175 0.025 0.025  0.175 0 0.025  0.2 0 0  0.2 0.025 0  0.2 0.025 0.025  0.2 0 0.025  0.225 0 0  0.225 0.025 0  0.225 0.025 0.025  0.225 0 0.025  0.25 0 0  0.25 0.025 0  0.25 0.025 0.025  0.25 0 0.025  0.275 0 0  0.275 0.025 0  0.275 0.025 0.025  0.275 0 0.025  0.3 0 0  0.3 0.025 0  0.3 0.025 0.025  0.3 0 0.025  0.325 0 0  0.325 0.025 0  0.325 0.025 0.025  0.325 0 0.025  0.35 0 0  0.35 0.025 0  0.35 0.025 0.025  0.35 0 0.025  0.375 0 0  0.375 0.025 0  0.375 0.025 0.025  0.375 0 0.025  0.4 0 0  0.4 0.025 0  0.4 0.025 0.025  0.4 0 0.025  0.425 0 0  0.425 0.025 0  0.425 0.025 0.025  0.425 0 0.025  0.45 0 0  0.45 0.025 0  0.45 0.025 0.025  0.45 0 0.025  0.475 0 0  0.475 0.025 0  0.475 0.025 0.025  0.475 0 0.025  0.5 0 0  0.5 0.025 0  0.5 0.025 0.025  0.5 0 0.025  0.025 0.05 0  0.025 0.05 0.025  0 0.05 0  0 0.05 0.025  0.05 0.05 0  0.05 0.05 0.025  0.075 0.05 0  0.075 0.05 0.025  0.1 0.05 0  0.1 0.05 0.025  0.125 0.05 0  0.125 0.05 0.025  0.15 0.05 0  0.15 0.05 0.025  0.175 0.05 0  0.175 0.05 0.025  0.2 0.05 0  0.2 0.05 0.025  0.225 0.05 0  0.225 0.05 0.025  0.25 0.05 0  0.25 0.05 0.025  0.275 0.05 0  0.275 0.05 0.025  0.3 0.05 0  0.3 0.05 0.025  0.325 0.05 0  0.325 0.05 0.025  0.35 0.05 0  0.35 0.05 0.025  0.375 0.05 0  0.375 0.05 0.025  0.4 0.05 0  0.4 0.05 0.025  0.425 0.05 0  0.425 0.05 0.025  0.45 0.05 0  0.45 0.05 0.025  0.475 0.05 0  0.475 0.05 0.025  0.5 0.05 0  0.5 0.05 0.025  0.525 0.05 0  0.525 0.05 0.025  0.025 0.075 0  0.025 0.075 0.025  0 0.075 0  0 0.075 0.025  0.05 0.075 0  0.05 0.075 0.025  0.075 0.075 0  0.075 0.075 0.025  0.1 0.075 0  0.1 0.075 0.025  0.125 0.075 0  0.125 0.075 0.025  0.15 0.075 0  0.15 0.075 0.025  0.175 0.075 0  0.175 0.075 0.025  0.2 0.075 0  0.2 0.075 0.025  0.225 0.075 0  0.225 0.075 0.025  0.25 0.075 0  0.25 0.075 0.025  0.275 0.075 0  0.275 0.075 0.025  0.3 0.075 0  0.3 0.075 0.025  0.325 0.075 0  0.325 0.075 0.025  0.35 0.075 0  0.35 0.075 0.025  0.375 0.075 0  0.375 0.075 0.025  0.4 0.075 0  0.4 0.075 0.025  0.425 0.075 0  0.425 0.075 0.025  0.45 0.075 0  0.45 0.075 0.025  0.475 0.075 0  0.475 0.075 0.025  0.5 0.075 0  0.5 0.075 0.025  0.525 0.075 0  0.525 0.075 0.025  0.025 0.1 0  0.025 0.1 0.025  0 0.1 0  0 0.1 0.025  0.05 0.1 0  0.05 0.1 0.025  0.075 0.1 0  0.075 0.1 0.025  0.1 0.1 0  0.1 0.1 0.025  0.125 0.1 0  0.125 0.1 0.025  0.15 0.1 0  0.15 0.1 0.025  0.175 0.1 0  0.175 0.1 0.025  0.2 0.1 0  0.2 0.1 0.025  0.225 0.1 0  0.225 0.1 0.025  0.25 0.1 0  0.25 0.1 0.025  0.275 0.1 0  0.275 0.1 0.025  0.3 0.1 0  0.3 0.1 0.025  0.325 0.1 0  0.325 0.1 0.025  0.35 0.1 0  0.35 0.1 0.025  0.375 0.1 0  0.375 0.1 0.025  0.4 0.1 0  0.4 0.1 0.025  0.425 0.1 0  0.425 0.1 0.025  0.45 0.1 0  0.45 0.1 0.025  0.475 0.1 0  0.475 0.1 0.025  0.5 0.1 0  0.5 0.1 0.025  0.525 0.1 0  0.525 0.1 0.025  0.025 0.125 0  0.025 0.125 0.025  0 0.125 0  0 0.125 0.025  0.05 0.125 0  0.05 0.125 0.025  0.075 0.125 0  0.075 0.125 0.025  0.1 0.125 0  0.1 0.125 0.025  0.125 0.125 0  0.125 0.125 0.025  0.15 0.125 0  0.15 0.125 0.025  0.175 0.125 0  0.175 0.125 0.025  0.2 0.125 0  0.2 0.125 0.025  0.225 0.125 0  0.225 0.125 0.025  0.25 0.125 0  0.25 0.125 0.025  0.275 0.125 0  0.275 0.125 0.025  0.3 0.125 0  0.3 0.125 0.025  0.325 0.125 0  0.325 0.125 0.025  0.35 0.125 0  0.35 0.125 0.025  0.375 0.125 0  0.375 0.125 0.025  0.4 0.125 0  0.4 0.125 0.025  0.425 0.125 0  0.425 0.125 0.025  0.45 0.125 0  0.45 0.125 0.025  0.475 0.125 0  0.475 0.125 0.025  0.5 0.125 0  0.5 0.125 0.025  0.525 0.125 0  0.525 0.125 0.025  0.025 0.15 0  0.025 0.15 0.025  0 0.15 0  0 0.15 0.025  0.05 0.15 0  0.05 0.15 0.025  0.075 0.15 0  0.075 0.15 0.025  0.1 0.15 0  0.1 0.15 0.025  0.125 0.15 0  0.125 0.15 0.025  0.15 0.15 0  0.15 0.15 0.025  0.175 0.15 0  0.175 0.15 0.025  0.2 0.15 0  0.2 0.15 0.025  0.225 0.15 0  0.225 0.15 0.025  0.25 0.15 0  0.25 0.15 0.025  0.275 0.15 0  0.275 0.15 0.025  0.3 0.15 0  0.3 0.15 0.025  0.325 0.15 0  0.325 0.15 0.025  0.35 0.15 0  0.35 0.15 0.025  0.375 0.15 0  0.375 0.15 0.025  0.4 0.15 0  0.4 0.15 0.025  0.425 0.15 0  0.425 0.15 0.025  0.45 0.15 0  0.45 0.15 0.025  0.475 0.15 0  0.475 0.15 0.025  0.5 0.15 0  0.5 0.15 0.025  0.525 0.15 0  0.525 0.15 0.025  0.55 0.15 0.025  0.025 0.175 0  0.025 0.175 0.025  0.05 0.175 0  0.05 0.175 0.025  0.075 0.175 0  0.075 0.175 0.025  0.1 0.175 0  0.1 0.175 0.025  0.125 0.175 0  0.125 0.175 0.025  0.15 0.175 0  0.15 0.175 0.025  0.175 0.175 0  0.175 0.175 0.025  0.2 0.175 0  0.2 0.175 0.025  0.225 0.175 0  0.225 0.175 0.025  0.25 0.175 0  0.25 0.175 0.025  0.275 0.175 0  0.275 0.175 0.025  0.3 0.175 0  0.3 0.175 0.025  0.325 0.175 0  0.325 0.175 0.025  0.35 0.175 0  0.35 0.175 0.025  0.375 0.175 0  0.375 0.175 0.025  0.4 0.175 0  0.4 0.175 0.025  0.425 0.175 0  0.425 0.175 0.025  0.45 0.175 0  0.45 0.175 0.025  0.475 0.175 0  0.475 0.175 0.025  0.5 0.175 0  0.5 0.175 0.025  0.525 0.175 0  0.525 0.175 0.025  0.55 0.175 0.025  0.55 0.175 0  0.05 0.2 0.025  0.075 0.2 0  0.075 0.2 0.025  0.1 0.2 0  0.1 0.2 0.025  0.125 0.2 0  0.125 0.2 0.025  0.15 0.2 0  0.15 0.2 0.025  0.175 0.2 0  0.175 0.2 0.025  0.2 0.2 0  0.2 0.2 0.025  0.225 0.2 0  0.225 0.2 0.025  0.25 0.2 0  0.25 0.2 0.025  0.275 0.2 0  0.275 0.2 0.025  0.3 0.2 0  0.3 0.2 0.025  0.325 0.2 0  0.325 0.2 0.025  0.35 0.2 0  0.35 0.2 0.025  0.375 0.2 0  0.375 0.2 0.025  0.4 0.2 0  0.4 0.2 0.025  0.425 0.2 0  0.425 0.2 0.025  0.45 0.2 0  0.45 0.2 0.025  0.475 0.2 0  0.475 0.2 0.025  0.5 0.2 0  0.5 0.2 0.025  0.525 0.2 0  0.525 0.2 0.025  0.55 0.2 0  0.55 0.2 0.025  0.1 0.225 0.025  0.125 0.225 0  0.125 0.225 0.025  0.15 0.225 0  0.15 0.225 0.025  0.175 0.225 0  0.175 0.225 0.025  0.2 0.225 0  0.2 0.225 0.025  0.225 0.225 0  0.225 0.225 0.025  0.25 0.225 0  0.25 0.225 0.025  0.275 0.225 0  0.275 0.225 0.025  0.3 0.225 0  0.3 0.225 0.025  0.325 0.225 0  0.325 0.225 0.025  0.35 0.225 0  0.35 0.225 0.025  0.375 0.225 0  0.375 0.225 0.025  0.4 0.225 0  0.4 0.225 0.025  0.425 0.225 0  0.425 0.225 0.025  0.45 0.225 0  0.45 0.225 0.025  0.475 0.225 0  0.475 0.225 0.025  0.5 0.225 0  0.5 0.225 0.025  0.525 0.225 0  0.525 0.225 0.025  0.55 0.225 0  0.55 0.225 0.025  0.575 0.225 0  0.575 0.225 0.025  0.15 0.25 0  0.15 0.25 0.025  0.175 0.25 0  0.175 0.25 0.025  0.2 0.25 0  0.2 0.25 0.025  0.225 0.25 0  0.225 0.25 0.025  0.25 0.25 0  0.25 0.25 0.025  0.275 0.25 0  0.275 0.25 0.025  0.3 0.25 0  0.3 0.25 0.025  0.325 0.25 0  0.325 0.25 0.025  0.35 0.25 0  0.35 0.25 0.025  0.375 0.25 0  0.375 0.25 0.025  0.4 0.25 0  0.4 0.25 0.025  0.425 0.25 0  0.425 0.25 0.025  0.45 0.25 0  0.45 0.25 0.025  0.475 0.25 0  0.475 0.25 0.025  0.5 0.25 0  0.5 0.25 0.025  0.525 0.25 0  0.525 0.25 0.025  0.55 0.25 0  0.55 0.25 0.025  0.575 0.25 0  0.575 0.25 0.025  0.6 0.25 0  0.6 0.25 0.025  0.175 0.275 0  0.175 0.275 0.025  0.2 0.275 0  0.2 0.275 0.025  0.225 0.275 0  0.225 0.275 0.025  0.25 0.275 0  0.25 0.275 0.025  0.275 0.275 0  0.275 0.275 0.025  0.3 0.275 0  0.3 0.275 0.025  0.325 0.275 0  0.325 0.275 0.025  0.35 0.275 0  0.35 0.275 0.025  0.375 0.275 0  0.375 0.275 0.025  0.4 0.275 0  0.4 0.275 0.025  0.425 0.275 0  0.425 0.275 0.025  0.45 0.275 0  0.45 0.275 0.025  0.475 0.275 0  0.475 0.275 0.025  0.5 0.275 0  0.5 0.275 0.025  0.525 0.275 0  0.525 0.275 0.025  0.55 0.275 0  0.55 0.275 0.025  0.575 0.275 0  0.575 0.275 0.025  0.6 0.275 0  0.6 0.275 0.025  0.2 0.3 0  0.2 0.3 0.025  0.225 0.3 0  0.225 0.3 0.025  0.25 0.3 0  0.25 0.3 0.025  0.275 0.3 0  0.275 0.3 0.025  0.3 0.3 0  0.3 0.3 0.025  0.325 0.3 0  0.325 0.3 0.025  0.35 0.3 0  0.35 0.3 0.025  0.375 0.3 0  0.375 0.3 0.025  0.4 0.3 0  0.4 0.3 0.025  0.425 0.3 0  0.425 0.3 0.025  0.45 0.3 0  0.45 0.3 0.025  0.475 0.3 0  0.475 0.3 0.025  0.5 0.3 0  0.5 0.3 0.025  0.525 0.3 0  0.525 0.3 0.025  0.55 0.3 0  0.55 0.3 0.025  0.575 0.3 0  0.575 0.3 0.025  0.6 0.3 0  0.6 0.3 0.025  0.225 0.325 0  0.225 0.325 0.025  0.25 0.325 0  0.25 0.325 0.025  0.275 0.325 0  0.275 0.325 0.025  0.3 0.325 0  0.3 0.325 0.025  0.325 0.325 0  0.325 0.325 0.025  0.35 0.325 0  0.35 0.325 0.025  0.375 0.325 0  0.375 0.325 0.025  0.4 0.325 0  0.4 0.325 0.025  0.425 0.325 0  0.425 0.325 0.025  0.45 0.325 0  0.45 0.325 0.025  0.475 0.325 0  0.475 0.325 0.025  0.5 0.325 0  0.5 0.325 0.025  0.525 0.325 0  0.525 0.325 0.025  0.55 0.325 0  0.55 0.325 0.025  0.575 0.325 0  0.575 0.325 0.025  0.6 0.325 0  0.6 0.325 0.025  0.625 0.325 0  0.625 0.325 0.025  0.25 0.35 0  0.25 0.35 0.025  0.275 0.35 0  0.275 0.35 0.025  0.3 0.35 0  0.3 0.35 0.025  0.325 0.35 0  0.325 0.35 0.025  0.35 0.35 0  0.35 0.35 0.025  0.375 0.35 0  0.375 0.35 0.025  0.4 0.35 0  0.4 0.35 0.025  0.425 0.35 0  0.425 0.35 0.025  0.45 0.35 0  0.45 0.35 0.025  0.475 0.35 0  0.475 0.35 0.025  0.5 0.35 0  0.5 0.35 0.025  0.525 0.35 0  0.525 0.35 0.025  0.55 0.35 0  0.55 0.35 0.025  0.575 0.35 0  0.575 0.35 0.025  0.6 0.35 0  0.6 0.35 0.025  0.625 0.35 0  0.625 0.35 0.025  0.275 0.375 0  0.275 0.375 0.025  0.3 0.375 0  0.3 0.375 0.025  0.325 0.375 0  0.325 0.375 0.025  0.35 0.375 0  0.35 0.375 0.025  0.375 0.375 0  0.375 0.375 0.025  0.4 0.375 0  0.4 0.375 0.025  0.425 0.375 0  0.425 0.375 0.025  0.45 0.375 0  0.45 0.375 0.025  0.475 0.375 0  0.475 0.375 0.025  0.5 0.375 0  0.5 0.375 0.025  0.525 0.375 0  0.525 0.375 0.025  0.55 0.375 0  0.55 0.375 0.025  0.575 0.375 0  0.575 0.375 0.025  0.6 0.375 0  0.6 0.375 0.025  0.625 0.375 0  0.625 0.375 0.025  0.65 0.375 0  0.65 0.375 0.025  0.3 0.4 0.025  0.325 0.4 0  0.325 0.4 0.025  0.35 0.4 0  0.
[...]
<PointData  Scalars="f_8"> 
<DataArray  type="Float64"  Name="f_8"  format="ascii">1.0000000000000002e+01  9.7493351252536691e+00  9.7493209867645056e+00  9.7493056833750273e+00  9.7493209867645092e+00  1.0000000000000000e+01  1.0000000000000000e+01  1.0000000000000000e+01  9.4987183212530955e+00  9.4986963387961048e+00  9.4986749341305945e+00  9.4986963387961065e+00  9.2481709518305166e+00  9.2481446722848979e+00  9.2481203713454576e+00  9.2481446722848943e+00  8.9977048262602750e+00  8.9976763441596876e+00  8.9976507460298443e+00  8.9976763441596912e+00  8.7473259258367957e+00  8.7472965900805200e+00  8.7472706815602912e+00  8.7472965900805182e+00  8.4970364079090928e+00  8.4970071448613016e+00  8.4969815995560687e+00  8.4970071448613016e+00  8.2468357737124052e+00  8.2468072453469503e+00  8.2467825452449102e+00  8.2468072453469556e+00  7.9967216130058620e+00  7.9966943033811058e+00  7.9966708013135062e+00  7.9966943033811084e+00  7.7466901116545142e+00  7.7466643791322669e+00  7.7466423360828651e+00  7.7466643791322651e+00  7.4967364134144940e+00  7.4967125246935860e+00  7.4966921342665973e+00  7.4967125246935842e+00  7.2468548853671999e+00  7.2468330389498670e+00  7.2468144444205134e+00  7.2468330389498652e+00  6.9970393162186024e+00  6.9970196592727358e+00  6.9970029659732802e+00  6.9970196592727358e+00  6.7472830659716037e+00  6.7472657068151927e+00  6.7472509913965473e+00  6.7472657068151918e+00  6.4975791793756388e+00  6.4975641969122346e+00  6.4975515144041562e+00  6.4975641969122364e+00  6.2479204718703221e+00  6.2479079228073475e+00  6.2478973120590435e+00  6.2479079228073484e+00  5.9982995944090698e+00  5.9982895187989618e+00  5.9982810066807728e+00  5.9982895187989600e+00  5.7487090820226987e+00  5.7487015074869809e+00  5.7486951121089049e+00  5.7487015074869792e+00  5.4991413899592194e+00  5.4991363348392674e+00  5.4991320679606552e+00  5.4991363348392666e+00  5.2495889205388080e+00  5.2495863961383948e+00  5.2495842648876163e+00  5.2495863961383940e+00  5.0000440433886348e+00  5.0000440554173062e+00  5.0000440634001855e+00  5.0000440554173036e+00  9.7492933750701223e+00  9.7492730151234213e+00  1.0000000000000000e+01  1.0000000000000000e+01  9.4986508012734312e+00  9.4986241556736957e+00  9.2480883200735970e+00  9.2480595475246528e+00  8.9976139734048513e+00  8.9975847355823202e+00  8.7472314778756921e+00  8.7472026454730010e+00  8.4969415970411912e+00  8.4969137116068829e+00  8.2467429262083325e+00  8.2467163555220289e+00  7.9966324358264700e+00  7.9966074400056737e+00  7.7466058715789403e+00  7.7465826375388591e+00  7.4966580555254385e+00  7.4966367178175446e+00  7.2467831151855790e+00  7.2467637699184948e+00  6.9969746587818111e+00  6.9969573735454826e+00  6.7472259095321387e+00  6.7472107307760991e+00  6.4975298083701176e+00  6.4975167670340568e+00  6.2478790920914671e+00  6.2478682079629051e+00  5.9982663522915649e+00  5.9982576373896377e+00  5.7486840793187248e+00  5.7486775405004078e+00  5.4991246946674837e+00  5.4991203355881888e+00  5.2495805746717084e+00  5.2495783971894889e+00  5.0000440679632669e+00  5.0000440730455189e+00  4.7505075088956570e+00  4.7505096970641834e+00  9.7492574321757441e+00  9.7492321231662817e+00  1.0000000000000000e+01  1.0000000000000000e+01  9.4985886221927149e+00  9.4985558351250283e+00  9.2480087495458321e+00  9.2479739568032731e+00  8.9975238345082982e+00  8.9974891088127507e+00  8.7471358240333767e+00  8.7471021271134841e+00  8.4968441564483790e+00  8.4968120109439127e+00  8.2466464673395574e+00  8.2466161880701510e+00  7.9965390303052821e+00  7.9965108179650040e+00  7.7465170784163417e+00  7.7464910638153039e+00  7.4965750513165341e+00  7.4965513192891633e+00  7.2467067878902309e+00  7.2466853917512397e+00  6.9969056766927498e+00  6.9968866477836329e+00  6.7471647729388646e+00  6.7471481273561338e+00  6.4974768888109420e+00  6.4974626323647371e+00  6.2478346624307726e+00  6.2478227944007143e+00  5.9982306098003502e+00  5.9982211258153368e+00  5.7486571632443999e+00  5.7486500574849684e+00  5.4991066993138400e+00  5.4991019661624829e+00  5.2495715586865979e+00  5.2495691939068294e+00  5.0000440602967586e+00  5.0000440617922957e+00  4.7505165117111208e+00  4.7505188798955515e+00  9.7492167817108975e+00  9.7491871845586289e+00  9.9999999999999982e+00  1.0000000000000000e+01  9.4985160700445093e+00  9.4984774762549762e+00  9.2479134816349422e+00  9.2478725877605328e+00  8.9974137289957845e+00  8.9973731378167177e+00  8.7470171736956139e+00  8.7469780603938023e+00  8.4967218541509251e+00  8.4966848105679063e+00  8.2465242816873978e+00  8.2464896270627648e+00  7.9964198560170185e+00  7.9963877676724548e+00  7.7464031371758688e+00  7.7463737121098069e+00  7.4964680465346705e+00  7.4964413334746780e+00  7.2466080227796326e+00  7.2465840403987114e+00  6.9968161445478012e+00  6.9967948926608354e+00  6.7470852265859067e+00  6.7470666935099590e+00  6.4974078943458551e+00  6.4973920620075569e+00  6.2477766409169426e+00  6.2477634885392046e+00  5.9981838695443068e+00  5.9981733763720220e+00  5.7486219245102257e+00  5.7486140718401648e+00  5.4990831127939490e+00  5.4990778854672886e+00  5.2495597186488121e+00  5.2495571061029569e+00  5.0000440130272166e+00  5.0000440099656105e+00  4.7505282596347111e+00  4.7505308663479031e+00  9.7491738369226635e+00  9.7491405909855384e+00  9.9999999999999982e+00  1.0000000000000000e+01  9.4984378330349504e+00  9.4983940398740696e+00  9.2478087710650101e+00  9.2477621639035448e+00  8.9972907285394648e+00  8.9972444393176065e+00  8.7468828458906955e+00  8.7468383143424688e+00  8.4965818832499505e+00  8.4965398246118244e+00  8.2463832121494409e+00  8.2463439938667484e+00  7.9962812801949568e+00  7.9962450883561500e+00  7.7462698753468233e+00  7.7462367957487919e+00  7.4963423015005182e+00  7.4963123623379762e+00  7.2464915067251479e+00  7.2464647026250262e+00  6.9967101811132384e+00  6.9966864875038635e+00  6.7469908323085290e+00  6.7469702144912462e+00  6.4973258433619572e+00  6.4973082625192342e+00  6.2477075161405828e+00  6.2476929334744931e+00  5.9981281028379918e+00  5.9981164825018976e+00  5.7485798277564664e+00  5.7485711389603669e+00  5.4990549012840342e+00  5.4990491197978617e+00  5.2495455278117999e+00  5.2495426370010145e+00  5.0000439092047566e+00  5.0000439006780093e+00  4.7505422453433583e+00  4.7505451192566817e+00  9.7491302557935295e+00  9.7490939015302498e+00  1.0000000000000000e+01  1.0000000000000000e+01  9.4983573159743635e+00  9.4983089465707771e+00  9.2476994737840741e+00  9.2476476803366801e+00  8.9971606721071371e+00  8.9971090684527280e+00  8.7467392078932154e+00  8.7466895061919665e+00  8.4964307756612190e+00  8.4963838404245582e+00  8.2462296926771117e+00  8.2461859674933162e+00  7.9961294607061983e+00  7.9960891647042249e+00  7.7461230593072337e+00  7.7460862863882074e+00  7.4962031194594791e+00  7.4961698919820305e+00  7.2463620376119957e+00  7.2463323370811494e+00  6.9965920559158432e+00  6.9965658413791427e+00  6.7468853204941235e+00  6.7468625400484337e+00  6.4972339237884853e+00  6.4972145220568498e+00  6.2476299345133359e+00  6.2476138576641054e+00  5.9980654176255506e+00  5.9980526168265786e+00  5.7485324461831251e+00  5.7485228800118131e+00  5.4990231066880035e+00  5.4990167428076058e+00  5.2495294993484141e+00  5.2495263156374063e+00  5.0000437345938016e+00  5.0000437198396694e+00  4.7505579271083080e+00  4.7505610813277421e+00  4.5010705230175434e+00  9.7490872177490271e+00  9.7490482044228610e+00  9.4982770067787108e+00  9.4982246340627725e+00  9.2475892919840490e+00  9.2475328600566495e+00  8.9970282148293403e+00  8.9969717600225163e+00  8.7465915495526740e+00  8.7465370424416715e+00  8.4962741561985631e+00  8.4962226174010222e+00  8.2460694346570289e+00  8.2460213984678195e+00  7.9959700045016051e+00  7.9959257389886265e+00  7.7459680515693456e+00  7.7459276732309057e+00  7.4960555192967284e+00  7.4960190568366265e+00  7.2462242223205031e+00  7.2461916539227484e+00  6.9964659178810473e+00  6.9964371938959706e+00  6.7467723520699261e+00  6.7467474093116513e+00  6.4971352895429160e+00  6.4971140605798281e+00  6.2475465314017180e+00  6.2475289507524598e+00  5.9979979240899235e+00  5.9979839324387916e+00  5.7484813612488290e+00  5.7484709083449372e+00  5.4989887800295509e+00  5.4989818266728934e+00  5.2495121531245310e+00  5.2495086724853071e+00  5.0000434776536142e+00  5.0000434560732767e+00  4.7505747619672656e+00  4.7505781993248792e+00  4.5011049210681371e+00  4.5010980113877963e+00  9.4981428803184986e+00  9.2474810408579753e+00  9.2474204956674040e+00  8.9968970141871836e+00  8.9968361896962303e+00  8.7464441642450073e+00  8.7463852660758779e+00  8.4961167285185368e+00  8.4960609289452851e+00  8.2459073418722610e+00  8.2458552708141948e+00  7.9958078367566356e+00  7.9957598199888409e+00  7.7458096551280393e+00  7.7457658414014068e+00  7.4959040708299280e+00  7.4958645042946523e+00  7.2460823139897563e+00  7.2460469774631653e+00  6.9963356419526042e+00  6.9963044837432147e+00  6.7466553792497992e+00  6.7466283303021690e+00  6.4970329383852068e+00  6.4970099235243293e+00  6.2474598278841516e+00  6.2474407733485364e+00  5.9979276513476343e+00  5.9979124899161267e+00  5.7484280998671444e+00  5.7484167743747303e+00  5.4989529394334209e+00  5.4989454051680076e+00  5.2494939945898516e+00  5.2494902208757894e+00  5.0000431293751735e+00  5.0000431005303465e+00  4.7505922264875160e+00  4.7505959422604649e+00  4.5011331655414732e+00  4.5011406410756356e+00  8.9967052020804683e+00  8.7463004904751038e+00  8.7462376298259716e+00  8.4959623544747291e+00  8.4959026693379478e+00  8.2457475332302899e+00  8.2456917477485003e+00  7.9956471790905050e+00  7.9955956801167751e+00  7.7456520604940318e+00  7.7456050345369247e+00  7.4957528225830581e+00  7.4957103353532073e+00  7.2459401301693429e+00  7.2459021750233115e+00  6.9962047449499698e+00  6.9961712734620942e+00  6.7465375644509713e+00  6.7465085062586594e+00  6.4969296376947669e+00  6.4969049136790744e+00  6.2473721660250865e+00  6.2473516972251213e+00  5.9978564940101808e+00  5.9978402077291060e+00  5.7483740934389838e+00  5.7483619274469575e+00  5.4989165423793445e+00  5.4989084477835375e+00  5.2494755006879776e+00  5.2494714438296208e+00  5.0000426830380107e+00  5.0000426466394430e+00  4.7506098303496858e+00  4.7506138140399630e+00  4.5011686804127473e+00  4.5011767006893866e+00  4.2517109384452212e+00  4.2517230280689553e+00  8.4958141647452639e+00  8.4957509798421498e+00  8.2455934140486828e+00  8.2455342563447189e+00  7.9954915848971648e+00  7.9954369019014333e+00  7.7454988517999306e+00  7.7454488700282393e+00  7.4956052862906528e+00  7.4955600965465443e+00  7.2458010228863152e+00  7.2457606330285778e+00  6.9960763473171639e+00  6.9960407160861688e+00  6.7464217386563634e+00  6.7463907979561286e+00  6.4968278832680086e+00  6.4968015531594308e+00  6.2472856709829072e+00  6.2472638699367700e+00  5.9977861797080170e+00  5.9977688316907578e+00  5.7483206522870036e+00  5.7483076916714912e+00  5.4988804680567611e+00  5.4988718429924370e+00  5.2494571107494821e+00  5.2494527853980992e+00  5.0000421339275052e+00  5.0000420898191518e+00  4.7506271248718299e+00  4.7506313615296012e+00  4.5012036676990235e+00  4.5012122025994916e+00  4.2517633064152260e+00  4.2517761742817850e+00  4.0022975086125046e+00  4.0023147599682449e+00  8.2454477649825080e+00  8.2453855849171145e+00  7.9953440021315076e+00  7.9952864480892467e+00  7.7453530456202024e+00  7.7453003839653798e+00  7.4954644557728418e+00  7.4954168038538755e+00  7.2456678822100535e+00  7.2456252646613590e+00  6.9959531658837362e+00  6.9959155511969175e+00  6.7463103873735708e+00  6.7462777123014934e+00  6.4967298818308850e+00  6.4967020680092444e+00  6.2472022327738683e+00  6.2471791982125886e+00  5.9977182521972345e+00  5.9976999192974141e+00  5.7482689516629151e+00  5.7482552528168283e+00  5.4988455073682658e+00  5.4988363888269243e+00  5.2494392211833150e+00  5.2494346456350449e+00  5.0000414790429550e+00  5.0000414271839846e+00  4.7506437077203776e+00  4.7506481789825505e+00  4.5012373308061591e+00  4.5012463433171499e+00  4.2518137246256176e+00  4.2518273143989811e+00  4.0023641748240122e+00  4.0023823940979435e+00  7.9952068463167656e+00  7.9951467396542615e+00  7.7452171458759738e+00  7.7451620903825722e+00  7.4953328452026255e+00  7.4952829846241995e+00  7.2455431604237317e+00  7.2454985370542087e+00  6.9958375268921147e+00  6.9957981204112762e+00  6.7462056554501562e+00  6.7461714091266396e+00  6.4966375503102336e+00  6.4966083890403841e+00  6.2471235022868505e+00  6.2470993451911747e+00  5.9976540659850786e+00  5.9976348352755551e+00  5.7482200264334971e+00  5.7482056536561217e+00  5.4988123587295021e+00  5.4988027891038920e+00  5.2494221830723529e+00  5.2494173784005511e+00  5.0000407168191892e+00  5.0000406572653384e+00  4.7506592247479098e+00  4.7506639096674332e+00  4.5012689684525098e+00  4.5012784163528767e+00  4.2518611556778989e+00  4.2518754033085031e+00  4.0024268903984153e+00  4.0024459908822285e+00  7.7450932044215470e+00  7.7450360449799671e+00  7.4952125366916622e+00  7.4951607278888117e+00  7.2454289076329426e+00  7.2453825092075572e+00  6.9957313913036616e+00  6.9956903946032183e+00  6.7461093640186132e+00  6.7460737196946576e+00  6.4965525263639003e+00  6.4965221636126032e+00  6.2470508971862291e+00  6.2470257373019162e+00  5.9975947891429433e+00  5.9975747551365330e+00  5.7481747720463758e+00  5.7481597954655363e+00  5.4987816281184116e+00  5.4987716538180686e+00  5.2494063019219697e+00  5.2494012912783026e+00  5.0000398468778293e+00  5.0000397797631662e+00  4.7506733697407357e+00  4.7506782454482428e+00  4.5012979740971932e+00  4.5013078113027509e+00  4.2519047038036604e+00  4.2519195395625866e+00  4.0024844872808227e+00  4.0025043749673275e+00  3.7530280837180179e+00  3.7530530897128678e+00  7.4951052305547607e+00  7.4950517366722069e+00  7.2453268123803118e+00  7.2452788743850753e+00  6.9956363864974600e+00  6.9955940071130867e+00  6.7460230344128087e+00  6.7459861718694842e+00  6.4964761858134317e+00  6.4964447740834972e+00  6.2469856141566558e+00  6.2469595773147768e+00  5.9975414115438399e+00  5.9975206740290750e+00  5.7481339497550614e+00  5.7481184436934782e+00  5.4987538320560914e+00  5.4987435024109521e+00  5.2493918389161154e+00  5.2493866469736998e+00  5.0000388698186056e+00  5.0000387953384164e+00  4.7506858827419114e+00  4.7506909249677998e+00  4.5013238325283194e+00  4.5013340101518073e+00  4.2519436091936162e+00  4.2519589592672418e+00  4.0025359772263869e+00  4.0025565529313845e+00  3.7530915170873289e+00  3.7531173841538057e+00  7.2452382428643283e+00  7.2451890027037047e+00  6.9955538401165924e+00  6.9955102887837839e+00  6.7459479151758694e+00  6.7459100181299432e+00  6.4964096635894810e+00  6.4963773595834162e+00  6.2469286446535923e+00  6.2469018607554316e+00  5.9974947562656009e+00  5.9974734186552974e+00  5.7480981944235614e+00  5.7480822361383401e+00  5.4987294024101834e+00  5.4987187688176409e+00  5.2493790131325859e+00  5.2493736656498236e+00  5.0000377870563346e+00  5.0000377054516916e+00  4.7506965475085075e+00  4.7507017309878954e+00  4.5013461147281628e+00  4.5013565819000059e+00  4.2519772398565658e+00  4.2519930275733735e+00  4.0025805400568464e+00  4.0026017010350863e+00  3.7531464361327425e+00  3.7531730351440618e+00  3.5036650944043948e+00  3.5036972026951592e+00  6.9954403018989986e+00  6.7458850093106442e+00  6.7458462636210479e+00  6.4963538756133659e+00  6.4963208385674935e+00  6.2468807919433997e+00  6.2468533934894035e+00  5.9974554923560452e+00  5.9974336604598930e+00  5.7480680235466828e+00  5.7480516922797671e+00  5.4987086921092221e+00  5.4986978073852644e+00  5.2493680042622834e+00  5.2493625277484810e+00  5.0000366007057622e+00  5.0000365122500181e+00  4.7507051885618798e+00  4.7507104873417969e+00  4.5013644719283468e+00  4.5013751764178673e+00  4.2520050823696103e+00  4.2520212291214410e+00  4.0026175106695909e+00  4.0026391518133266e+00  3.7531920413643576e+00  3.7532192406097922e+00  3.5037186919914989e+00  3.5037515187889632e+00  3.2542256810132373e+00  6.4963095397062274e+00  6.4962759302577657e+00  6.2468426877459988e+00  6.2468148088023723e+00  5.9974241475574583e+00  5.9974019286990270e+00  5.7480438464078913e+00  5.7480272226910571e+00  5.4986919810384638e+00  5.4986808989368603e+00  5.2493589554649898e+00  5.2493533769302632e+00  5.0000353135138793e+00  5.0000352185012389e+00  4.7507116681971535e+00  4.7507170558637304e+00  4.5013786295812892e+00  4.5013895182544950e+00  4.2520267325916929e+00  4.2520431585056997e+00  4.0026463661916791e+00  4.0026683808908166e+00  3.7532553717774944e+00  3.5037940350345158e+00  3.2542739348207546e+00  6.2468148072306242e+00  6.2467865827385136e+00  5.9974011199297959e+00  5.9973786223354972e+00  5.7480259725468823e+00  5.7480091377090909e+00  5.4986794815508633e+00  5.4986682564167397e+00  5.2493519760735596e+00  5.2493463228465602e+00  5.0000339288377784e+00  5.0000338275739367e+00  4.7507158837356620e+00  4.7507213335777392e+00  4.5013994009562968e+00  4.2520585115738099e+00  4.0026889950645899e+00  3.7532809578243320e+00  5.9973866875963697e+00  5.9973640199899299e+00  5.7480146189219905e+00  5.7479976547506446e+00  5.4986713431678345e+00  5.4986600296939434e+00  5.2493471439284285e+00  5.2493414435262018e+00  5.0000323434599894e+00  4.7507232503572192e+00  4.5014046823128515e+00  5.7480099153299307e+00  5.7479929038403892e+00  5.9973810160669290e+00  5.9973582874076925e+00  5.4986563092199159e+00  5.2493387872191342e+00  5.0000307708361964e+00  5.7480119077924732e+00  5.7479949310625891e+00  5.4986571283367249e+00  9.7492730151234159e+00  9.7492933750701187e+00  1.0000000000000000e+01  1.0000000000000000e+01  9.4986241556736939e+00  9.4986508012734330e+00  9.2480595475246510e+00  9.2480883200736042e+00  8.9975847355823273e+00  8.9976139734048584e+00  8.7472026454730010e+00  8.7472314778756957e+00  8.4969137116068847e+00  8.4969415970411983e+00  8.2467163555220324e+00  8.2467429262083396e+00  7.9966074400056737e+00  7.9966324358264762e+00  7.7465826375388644e+00  7.7466058715789430e+00  7.4966367178175455e+00  7.4966580555254394e+00  7.2467637699184966e+00  7.2467831151855826e+00  6.9969573735454835e+00  6.9969746587818147e+00  6.7472107307760973e+00  6.7472259095321405e+00  6.4975167670340568e+00  6.4975298083701176e+00  6.2478682079629051e+00  6.2478790920914662e+00  5.9982576373896395e+00  5.9982663522915649e+00  5.7486775405004078e+00  5.7486840793187257e+00  5.4991203355881888e+00  5.4991246946674837e+00  5.2495783971894863e+00  5.2495805746717048e+00  5.0000440730455180e+00  5.0000440679632643e+00  9.7492303461255503e+00  1.0000000000000002e+01  9.4985613449941404e+00  9.2479871788048715e+00  8.9975083631426305e+00  8.7471255310941185e+00  8.4968379457052610e+00  8.2466433582722889e+00  7.9965382107981444e+00  7.7465178931227943e+00  7.4965769762365273e+00  7.2467094054555714e+00  6.9969086547974859e+00  6.7471678481622570e+00  6.4974798532559417e+00  6.2478373534965375e+00  5.9982329023010381e+00  5.7486589634156884e+00  5.4991079403658460e+00  5.2495721976581571e+00  5.0000440760433777e+00  4.7505159039219675e+00  9.7491792050577484e+00  9.9999999999999982e+00  9.4984792704176542e+00  9.2478873438453633e+00  8.9973992279514974e+00  8.7470126800992567e+00  8.4967251946654603e+00  8.2465333924188329e+00  7.9964329604309246e+00  7.7464187645531748e+00  7.4964850009154045e+00  7.2466253408074559e+00  6.9968330551470075e+00  6.7471011162292100e+00  6.4974222784323361e+00  6.2477891407334605e+00  5.9981941940431280e+00  5.7486298561771738e+00  5.4990884970082812e+00  5.2495624560765473e+00  5.0000440547207949e+00  4.7505256046295470e+00  9.7491249182746209e+00  1.0000000000000000e+01  9.4983875019375343e+00  9.2477713257134084e+00  8.9972687808122345e+00  8.7468749735474951e+00  8.4965854705741481e+00  8.2463955115594576e+00  7.9962997881890114e+00  7.7462924394746171e+00  7.4963671234385361e+00  7.2465171083513749e+00  6.9967353607843785e+00  6.7470146221100684e+00  6.4973474712285357e+0