<?xml version="1.0"?>
<VTKFile type="UnstructuredGrid"  version="0.1"  >
<UnstructuredGrid>
<Piece  NumberOfPoints="7630" NumberOfCells="38698">
<Points>
<DataArray  type="Float64"  NumberOfComponents="3"  format="ascii">0.15 0 0.225  0.175 0 0.225  0.175 0 0.25  0.175 0.025 0.25  0.15 0 0.25  0.2 0 0.225  0.2 0 0.25  0.2 0.025 0.25  0.225 0 0.25  0.225 0.025 0.25  0.175 0.025 0.275  0.175 0 0.275  0.15 0 0.275  0.2 0.025 0.275  0.2 0 0.275  0.225 0.025 0.275  0.225 0 0.275  0.25 0 0.25  0.25 0 0.275  0.25 0.025 0.275  0.275 0 0.275  0.275 0.025 0.275  0.2 0.05 0.275  0.225 0.05 0.275  0.25 0.05 0.275  0.175 0.025 0.3  0.175 0 0.3  0.15 0 0.3  0.2 0.025 0.3  0.2 0 0.3  0.225 0.025 0.3  0.225 0 0.3  0.25 0.025 0.3  0.25 0 0.3  0.275 0.025 0.3  0.275 0 0.3  0.3 0 0.275  0.3 0 0.3  0.3 0.025 0.3  0.325 0 0.275  0.325 0 0.3  0.325 0.025 0.3  0.35 0 0.275  0.35 0 0.3  0.35 0.025 0.3  0.375 0 0.275  0.375 0 0.3  0.375 0.025 0.3  0.4 0 0.275  0.4 0 0.3  0.4 0.025 0.3  0.425 0 0.275  0.425 0 0.3  0.425 0.025 0.3  0.45 0 0.275  0.45 0 0.3  0.45 0.025 0.3  0.475 0 0.3  0.475 0.025 0.3  0.2 0.05 0.3  0.225 0.05 0.3  0.25 0.05 0.3  0.275 0.05 0.275  0.275 0.05 0.3  0.3 0.05 0.3  0.225 0.075 0.3  0.2 0.075 0.3  0.2 0.075 0.275  0.25 0.075 0.3  0.275 0.075 0.3  0.3 0.075 0.3  0.225 0.1 0.3  0.175 0.025 0.325  0.175 0 0.325  0.15 0 0.325  0.2 0.025 0.325  0.2 0 0.325  0.225 0.025 0.325  0.225 0 0.325  0.25 0.025 0.325  0.25 0 0.325  0.275 0.025 0.325  0.275 0 0.325  0.3 0.025 0.325  0.3 0 0.325  0.325 0.025 0.325  0.325 0 0.325  0.35 0.025 0.325  0.35 0 0.325  0.375 0.025 0.325  0.375 0 0.325  0.4 0.025 0.325  0.4 0 0.325  0.425 0.025 0.325  0.425 0 0.325  0.45 0.025 0.325  0.45 0 0.325  0.475 0.025 0.325  0.475 0 0.325  0.5 0 0.3  0.5 0 0.325  0.5 0.025 0.325  0.525 0 0.325  0.525 0.025 0.325  0.2 0.05 0.325  0.225 0.05 0.325  0.25 0.05 0.325  0.275 0.05 0.325  0.3 0.05 0.325  0.325 0.05 0.3  0.325 0.05 0.325  0.35 0.05 0.3  0.35 0.05 0.325  0.375 0.05 0.3  0.375 0.05 0.325  0.4 0.05 0.325  0.425 0.05 0.325  0.45 0.05 0.325  0.475 0.05 0.325  0.5 0.05 0.325  0.225 0.075 0.325  0.2 0.075 0.325  0.25 0.075 0.325  0.275 0.075 0.325  0.3 0.075 0.325  0.325 0.075 0.3  0.325 0.075 0.325  0.35 0.075 0.325  0.375 0.075 0.325  0.4 0.075 0.325  0.225 0.1 0.325  0.25 0.1 0.3  0.25 0.1 0.325  0.275 0.1 0.325  0.3 0.1 0.325  0.325 0.1 0.325  0.35 0.1 0.325  0.25 0.125 0.3  0.25 0.125 0.325  0.275 0.125 0.325  0.275 0.15 0.325  0.175 0.025 0.35  0.175 0 0.35  0.15 0 0.35  0.2 0.025 0.35  0.2 0 0.35  0.225 0.025 0.35  0.225 0 0.35  0.25 0.025 0.35  0.25 0 0.35  0.275 0.025 0.35  0.275 0 0.35  0.3 0.025 0.35  0.3 0 0.35  0.325 0.025 0.35  0.325 0 0.35  0.35 0.025 0.35  0.35 0 0.35  0.375 0.025 0.35  0.375 0 0.35  0.4 0.025 0.35  0.4 0 0.35  0.425 0.025 0.35  0.425 0 0.35  0.45 0.025 0.35  0.45 0 0.35  0.475 0.025 0.35  0.475 0 0.35  0.5 0.025 0.35  0.5 0 0.35  0.525 0.025 0.35  0.525 0 0.35  0.55 0 0.325  0.55 0.025 0.325  0.55 0.025 0.35  0.55 0 0.35  0.575 0 0.325  0.575 0 0.35  0.575 0.025 0.35  0.6 0 0.35  0.6 0.025 0.35  0.2 0.05 0.35  0.225 0.05 0.35  0.25 0.05 0.35  0.275 0.05 0.35  0.3 0.05 0.35  0.325 0.05 0.35  0.35 0.05 0.35  0.375 0.05 0.35  0.4 0.05 0.35  0.425 0.05 0.35  0.45 0.05 0.35  0.475 0.05 0.35  0.5 0.05 0.35  0.525 0.05 0.35  0.55 0.05 0.35  0.575 0.05 0.35  0.225 0.075 0.35  0.25 0.075 0.35  0.275 0.075 0.35  0.3 0.075 0.35  0.325 0.075 0.35  0.35 0.075 0.35  0.375 0.075 0.35  0.4 0.075 0.35  0.425 0.075 0.325  0.425 0.075 0.35  0.45 0.075 0.325  0.45 0.075 0.35  0.475 0.075 0.35  0.5 0.075 0.35  0.525 0.075 0.35  0.225 0.1 0.35  0.25 0.1 0.35  0.275 0.1 0.35  0.3 0.1 0.35  0.325 0.1 0.35  0.35 0.1 0.35  0.375 0.1 0.35  0.4 0.1 0.325  0.4 0.1 0.35  0.425 0.1 0.325  0.425 0.1 0.35  0.45 0.1 0.35  0.475 0.1 0.35  0.25 0.125 0.35  0.275 0.125 0.35  0.3 0.125 0.325  0.3 0.125 0.35  0.325 0.125 0.325  0.325 0.125 0.35  0.35 0.125 0.325  0.35 0.125 0.35  0.375 0.125 0.35  0.425 0.125 0.35  0.4 0.125 0.35  0.45 0.125 0.35  0.275 0.15 0.35  0.3 0.15 0.35  0.325 0.15 0.35  0.35 0.15 0.35  0.375 0.15 0.35  0.3 0.175 0.35  0.175 0.025 0.375  0.175 0 0.375  0.15 0 0.375  0.2 0.025 0.375  0.2 0 0.375  0.225 0.025 0.375  0.225 0 0.375  0.25 0.025 0.375  0.25 0 0.375  0.275 0.025 0.375  0.275 0 0.375  0.3 0.025 0.375  0.3 0 0.375  0.325 0.025 0.375  0.325 0 0.375  0.35 0.025 0.375  0.35 0 0.375  0.375 0.025 0.375  0.375 0 0.375  0.4 0.025 0.375  0.4 0 0.375  0.425 0.025 0.375  0.425 0 0.375  0.45 0.025 0.375  0.45 0 0.375  0.475 0.025 0.375  0.475 0 0.375  0.5 0.025 0.375  0.5 0 0.375  0.525 0.025 0.375  0.525 0 0.375  0.55 0.025 0.375  0.55 0 0.375  0.575 0.025 0.375  0.575 0 0.375  0.6 0.025 0.375  0.6 0 0.375  0.625 0 0.35  0.625 0 0.375  0.625 0.025 0.375  0.65 0.025 0.375  0.2 0.05 0.375  0.225 0.05 0.375  0.25 0.05 0.375  0.275 0.05 0.375  0.3 0.05 0.375  0.325 0.05 0.375  0.35 0.05 0.375  0.375 0.05 0.375  0.4 0.05 0.375  0.425 0.05 0.375  0.45 0.05 0.375  0.475 0.05 0.375  0.5 0.05 0.375  0.525 0.05 0.375  0.55 0.05 0.375  0.575 0.05 0.375  0.6 0.05 0.35  0.6 0.05 0.375  0.625 0.05 0.375  0.225 0.075 0.375  0.25 0.075 0.375  0.275 0.075 0.375  0.3 0.075 0.375  0.325 0.075 0.375  0.35 0.075 0.375  0.375 0.075 0.375  0.4 0.075 0.375  0.425 0.075 0.375  0.45 0.075 0.375  0.475 0.075 0.375  0.5 0.075 0.375  0.525 0.075 0.375  0.55 0.075 0.35  0.55 0.075 0.375  0.575 0.075 0.35  0.575 0.075 0.375  0.6 0.075 0.375  0.625 0.075 0.375  0.25 0.1 0.375  0.225 0.1 0.375  0.275 0.1 0.375  0.3 0.1 0.375  0.325 0.1 0.375  0.35 0.1 0.375  0.375 0.1 0.375  0.4 0.1 0.375  0.425 0.1 0.375  0.45 0.1 0.375  0.475 0.1 0.375  0.5 0.1 0.35  0.5 0.1 0.375  0.525 0.1 0.375  0.55 0.1 0.375  0.575 0.1 0.375  0.6 0.1 0.375  0.25 0.125 0.375  0.275 0.125 0.375  0.3 0.125 0.375  0.325 0.125 0.375  0.35 0.125 0.375  0.375 0.125 0.375  0.4 0.125 0.375  0.425 0.125 0.375  0.45 0.125 0.375  0.475 0.125 0.375  0.5 0.125 0.375  0.525 0.125 0.375  0.275 0.15 0.375  0.3 0.15 0.375  0.325 0.15 0.375  0.35 0.15 0.375  0.375 0.15 0.375  0.4 0.15 0.35  0.4 0.15 0.375  0.425 0.15 0.35  0.425 0.15 0.375  0.45 0.15 0.35  0.45 0.15 0.375  0.475 0.15 0.375  0.3 0.175 0.375  0.325 0.175 0.35  0.325 0.175 0.375  0.35 0.175 0.35  0.35 0.175 0.375  0.375 0.175 0.35  0.375 0.175 0.375  0.4 0.175 0.375  0.425 0.175 0.375  0.45 0.175 0.375  0.475 0.175 0.375  0.325 0.2 0.35  0.325 0.2 0.375  0.3 0.2 0.35  0.35 0.2 0.35  0.35 0.2 0.375  0.375 0.2 0.375  0.4 0.2 0.375  0.325 0.225 0.35  0.325 0.225 0.375  0.3 0.225 0.35  0.35 0.225 0.375  0.375 0.225 0.375  0.325 0.25 0.375  0.35 0.25 0.375  0.175 0.025 0.4  0.175 0 0.4  0.2 0.025 0.4  0.2 0 0.4  0.225 0.025 0.4  0.225 0 0.4  0.25 0.025 0.4  0.25 0 0.4  0.275 0.025 0.4  0.275 0 0.4  0.3 0.025 0.4  0.3 0 0.4  0.325 0.025 0.4  0.325 0 0.4  0.35 0.025 0.4  0.35 0 0.4  0.375 0.025 0.4  0.375 0 0.4  0.4 0.025 0.4  0.4 0 0.4  0.425 0.025 0.4  0.425 0 0.4  0.45 0.025 0.4  0.45 0 0.4  0.475 0.025 0.4  0.475 0 0.4  0.5 0.025 0.4  0.5 0 0.4  0.525 0.025 0.4  0.525 0 0.4  0.55 0.025 0.4  0.55 0 0.4  0.575 0.025 0.4  0.575 0 0.4  0.6 0.025 0.4  0.6 0 0.4  0.625 0.025 0.4  0.625 0 0.4  0.65 0.025 0.4  0.2 0.05 0.4  0.225 0.05 0.4  0.25 0.05 0.4  0.275 0.05 0.4  0.3 0.05 0.4  0.325 0.05 0.4  0.35 0.05 0.4  0.375 0.05 0.4  0.4 0.05 0.4  0.425 0.05 0.4  0.45 0.05 0.4  0.475 0.05 0.4  0.5 0.05 0.4  0.525 0.05 0.4  0.55 0.05 0.4  0.575 0.05 0.4  0.6 0.05 0.4  0.625 0.05 0.4  0.65 0.05 0.4  0.675 0.05 0.4  0.225 0.075 0.4  0.25 0.075 0.4  0.275 0.075 0.4  0.3 0.075 0.4  0.325 0.075 0.4  0.35 0.075 0.4  0.375 0.075 0.4  0.4 0.075 0.4  0.425 0.075 0.4  0.45 0.075 0.4  0.475 0.075 0.4  0.5 0.075 0.4  0.525 0.075 0.4  0.55 0.075 0.4  0.575 0.075 0.4  0.6 0.075 0.4  0.625 0.075 0.4  0.65 0.075 0.4  0.25 0.1 0.4  0.225 0.1 0.4  0.275 0.1 0.4  0.3 0.1 0.4  0.325 0.1 0.4  0.35 0.1 0.4  0.375 0.1 0.4  0.4 0.1 0.4  0.425 0.1 0.4  0.45 0.1 0.4  0.475 0.1 0.4  0.5 0.1 0.4  0.525 0.1 0.4  0.55 0.1 0.4  0.575 0.1 0.4  0.6 0.1 0.4  0.625 0.1 0.4  0.65 0.1 0.4  0.25 0.125 0.4  0.275 0.125 0.4  0.3 0.125 0.4  0.325 0.125 0.4  0.35 0.125 0.4  0.375 0.125 0.4  0.4 0.125 0.4  0.425 0.125 0.4  0.45 0.125 0.4  0.475 0.125 0.4  0.5 0.125 0.4  0.525 0.125 0.4  0.55 0.125 0.375  0.55 0.125 0.4  0.575 0.125 0.375  0.575 0.125 0.4  0.6 0.125 0.375  0.6 0.125 0.4  0.625 0.125 0.4  0.275 0.15 0.4  0.3 0.15 0.4  0.325 0.15 0.4  0.35 0.15 0.4  0.375 0.15 0.4  0.4 0.15 0.4  0.425 0.15 0.4  0.45 0.15 0.4  0.475 0.15 0.4  0.5 0.15 0.375  0.5 0.15 0.4  0.525 0.15 0.4  0.55 0.15 0.4  0.575 0.15 0.4  0.6 0.15 0.4  0.625 0.15 0.4  0.3 0.175 0.4  0.325 0.175 0.4  0.35 0.175 0.4  0.375 0.175 0.4  0.4 0.175 0.4  0.425 0.175 0.4  0.45 0.175 0.4  0.475 0.175 0.4  0.5 0.175 0.375  0.5 0.175 0.4  0.525 0.175 0.4  0.325 0.2 0.4  0.3 0.2 0.4  0.35 0.2 0.4  0.375 0.2 0.4  0.4 0.2 0.4  0.425 0.2 0.375  0.425 0.2 0.4  0.45 0.2 0.375  0.45 0.2 0.4  0.475 0.2 0.375  0.475 0.2 0.4  0.5 0.2 0.4  0.525 0.2 0.4  0.35 0.225 0.4  0.325 0.225 0.4  0.375 0.225 0.4  0.4 0.225 0.4  0.425 0.225 0.4  0.45 0.225 0.4  0.475 0.225 0.4  0.5 0.225 0.4  0.35 0.25 0.4  0.325 0.25 0.4  0.375 0.25 0.375  0.375 0.25 0.4  0.4 0.25 0.4  0.35 0.275 0.375  0.35 0.275 0.4  0.325 0.275 0.375  0.375 0.275 0.4  0.4 0.275 0.4  0.35 0.3 0.4  0.375 0.3 0.4  0.2 0.025 0.425  0.2 0 0.425  0.225 0.025 0.425  0.225 0 0.425  0.25 0.025 0.425  0.25 0 0.425  0.275 0.025 0.425  0.275 0 0.425  0.3 0.025 0.425  0.3 0 0.425  0.325 0.025 0.425  0.325 0 0.425  0.35 0.025 0.425  0.35 0 0.425  0.375 0.025 0.425  0.375 0 0.425  0.4 0.025 0.425  0.4 0 0.425  0.425 0.025 0.425  0.425 0 0.425  0.45 0.025 0.425  0.45 0 0.425  0.475 0.025 0.425  0.475 0 0.425  0.5 0.025 0.425  0.5 0 0.425  0.525 0.025 0.425  0.525 0 0.425  0.55 0.025 0.425  0.55 0 0.425  0.575 0.025 0.425  0.575 0 0.425  0.6 0.025 0.425  0.6 0 0.425  0.625 0.025 0.425  0.625 0 0.425  0.65 0 0.425  0.65 0.025 0.425  0.2 0.05 0.425  0.225 0.05 0.425  0.25 0.05 0.425  0.275 0.05 0.425  0.3 0.05 0.425  0.325 0.05 0.425  0.35 0.05 0.425  0.375 0.05 0.425  0.4 0.05 0.425  0.425 0.05 0.425
[...]
<PointData  Scalars="f_8"> 
<DataArray  type="Float64"  Name="f_8"  format="ascii">8.4959623544747469e+00  8.2457475332303183e+00  8.2455934140487095e+00  8.2455342563447473e+00  8.4958141647452816e+00  7.9956471790905308e+00  7.9954915848971897e+00  7.9954369019014617e+00  7.7454988517999608e+00  7.7454488700282704e+00  8.2453855849171376e+00  8.2454477649825346e+00  8.4956746724944949e+00  7.9952864480892760e+00  7.9953440021315343e+00  7.7453003839654189e+00  7.7453530456202344e+00  7.4956052862906812e+00  7.4954644557728658e+00  7.4954168038539120e+00  7.2456678822100855e+00  7.2456252646613910e+00  7.9951304769699156e+00  7.7451567705249484e+00  7.4952861952039243e+00  8.2452479791340672e+00  8.2453128326185254e+00  8.4955458780389570e+00  7.9951467396542917e+00  7.9952068463168011e+00  7.7451620903826095e+00  7.7452171458760102e+00  7.4952829846242324e+00  7.4953328452026584e+00  7.2454985370542468e+00  7.2455431604237672e+00  6.9959531658837664e+00  6.9958375268921520e+00  6.9957981204113162e+00  6.7463103873735966e+00  6.7462056554501864e+00  6.7461714091266733e+00  6.4967298818309080e+00  6.4966375503102620e+00  6.4966083890404134e+00  6.2472022327738905e+00  6.2471235022868754e+00  6.2470993451911969e+00  5.9977182521972567e+00  5.9976540659850972e+00  5.9976348352755746e+00  5.7482689516629364e+00  5.7482200264335139e+00  5.7482056536561394e+00  5.4988455073682800e+00  5.4988123587295155e+00  5.4988027891039062e+00  5.2494221830723617e+00  5.2494173784005627e+00  7.9949838322442810e+00  7.7450119500405243e+00  7.4951463371794702e+00  7.2455079756068832e+00  7.2453757510990373e+00  6.9956893334412165e+00  7.7447880253134525e+00  7.9947425573026401e+00  7.9948995139009895e+00  7.4949413835384160e+00  7.2451907392950501e+00  6.9955247964239184e+00  7.7445096722348836e+00  8.2451232301366915e+00  8.2451904139430177e+00  8.4954293602543469e+00  7.9950197327284060e+00  7.9950820740004662e+00  7.7450360449800026e+00  7.7450932044215817e+00  7.4951607278888410e+00  7.4952125366916924e+00  7.2453825092075910e+00  7.2454289076329728e+00  6.9956903946032529e+00  6.9957313913036945e+00  6.7460737196946985e+00  6.7461093640186487e+00  6.4965221636126333e+00  6.4965525263639297e+00  6.2470257373019438e+00  6.2470508971862531e+00  5.9975747551365508e+00  5.9975947891429646e+00  5.7481597954655532e+00  5.7481747720463892e+00  5.4987716538180802e+00  5.4987816281184250e+00  5.2494012912783115e+00  5.2494063019219785e+00  5.0000407168191989e+00  5.0000398468778409e+00  5.0000397797631759e+00  4.7506733697407411e+00  4.7506782454482490e+00  7.9948507396187152e+00  7.7448801561593363e+00  7.4950187432652546e+00  7.2452548497398022e+00  6.9955772335655650e+00  6.7460766136228258e+00  6.7459750729338177e+00  6.4965274923413725e+00  6.4964379527948557e+00  6.2470322117005352e+00  6.2469558348195457e+00  5.9975190162107967e+00  5.7481180810647441e+00  5.4987438467863266e+00  5.2493873072605508e+00  5.0000395739503816e+00  7.7446476324695936e+00  7.9946003937504351e+00  7.4948057821481822e+00  7.2450625078719142e+00  6.9954061038878832e+00  6.7459327945509102e+00  6.7458254389682830e+00  6.4963098985253236e+00  6.2468493237477452e+00  5.9974339485067611e+00  7.7443585510299506e+00  7.4946851444169997e+00  7.4945395227491742e+00  7.2448209097359006e+00  6.9951903262719028e+00  6.7456361695999725e+00  6.4961475053029742e+00  7.4943928868380496e+00  7.4942358215565577e+00  7.2445440653016862e+00  7.2442444186207471e+00  8.2450127519424132e+00  8.2450819313170136e+00  8.4953263540318531e+00  7.9949069896627094e+00  7.9949712513906483e+00  7.7449239073508771e+00  7.7449828809949723e+00  7.4950517366722309e+00  7.4951052305547821e+00  7.2452788743851064e+00  7.2453268123803394e+00  6.9955940071131169e+00  6.9956363864974946e+00  6.7459861718695109e+00  6.7460230344128416e+00  6.4964447740835265e+00  6.4964761858134601e+00  6.2469595773148017e+00  6.2469856141566789e+00  5.9975206740290936e+00  5.9975414115438612e+00  5.7481184436934880e+00  5.7481339497550676e+00  5.4987435024109592e+00  5.4987538320560994e+00  5.2493866469737087e+00  5.2493918389161216e+00  5.0000387953384244e+00  5.0000388698186145e+00  4.7506909249678069e+00  4.7506858827419185e+00  4.5012979740971995e+00  4.5013078113027571e+00  4.5013340101518127e+00  4.5013238325283247e+00  4.2519047038036701e+00  4.2519436091936242e+00  4.2519589592672480e+00  4.0025359772263966e+00  4.0025565529313907e+00  7.9947327567402899e+00  7.7447630530964346e+00  7.4949051282038441e+00  7.2451469813985554e+00  6.9954770372531785e+00  6.7458841643860827e+00  6.4963576658747737e+00  6.2468872501069725e+00  5.9974629882987394e+00  5.7480752630093894e+00  5.4987147106413996e+00  5.2493721599851941e+00  5.0000385682406954e+00  4.7507049555377039e+00  4.5013623387304955e+00  4.2520016651253547e+00  7.7445230867690702e+00  7.4946852167391604e+00  7.2449482607641116e+00  6.9953001572462430e+00  6.7457294480928258e+00  6.4962252238115736e+00  6.2467770627611081e+00  5.9973749660813551e+00  5.7480543347538218e+00  5.7480092896456840e+00  5.4987013069663746e+00  5.4986706740626570e+00  5.2493499734547466e+00  5.0000381835008225e+00  4.7507263690556174e+00  7.7442246999140156e+00  7.4944102427455075e+00  7.2446986454601072e+00  6.9950771375664393e+00  6.7455337668986344e+00  6.4960572869360220e+00  6.2466370545042267e+00  5.9973256577733345e+00  5.9972629342514718e+00  5.7479730752319966e+00  5.7479252077925667e+00  5.4986144861820421e+00  5.2493216247766119e+00  7.4940965690752863e+00  7.2444126048467057e+00  6.9949421207718707e+00  6.9948206080682862e+00  6.7454177637661337e+00  6.7453079785388921e+00  6.4959596215565467e+00  6.4958630108800479e+00  6.2464747450468527e+00  5.7478274308448221e+00  5.9971328350932867e+00  5.4985490687712177e+00  7.2441029919118112e+00  6.9945419125188515e+00  6.7450619233338394e+00  6.4956507541616961e+00  6.2462970397761550e+00  6.9942510445284531e+00  8.2449176474882915e+00  8.2449884969002039e+00  8.4952378145914764e+00  7.9948097419324791e+00  7.9948756155672429e+00  7.7448269982759914e+00  7.7448874988601064e+00  7.4949573782228427e+00  7.4950122940071582e+00  7.2451890027037349e+00  7.2452382428643505e+00  6.9955102887838159e+00  6.9955538401166200e+00  6.7459100181299725e+00  6.7459479151758979e+00  6.4963773595834438e+00  6.4964096635895094e+00  6.2469018607554547e+00  6.2469286446536154e+00  5.9974734186553151e+00  5.9974947562656178e+00  5.7480822361383481e+00  5.7480981944235703e+00  5.4987187688176506e+00  5.4987294024101958e+00  5.2493736656498324e+00  5.2493790131325939e+00  5.0000377054516996e+00  5.0000377870563435e+00  4.7507017309879025e+00  4.7506965475085172e+00  4.5013565819000121e+00  4.5013461147281699e+00  4.2519930275733824e+00  4.2519772398565756e+00  4.0026017010350916e+00  4.0025805400568517e+00  3.7530915170873365e+00  3.7531464361327487e+00  3.7531730351440684e+00  3.5036972026951672e+00  7.9946311043503258e+00  7.7446619588217089e+00  7.4948068627769278e+00  7.2450535244084548e+00  6.9953900866471992e+00  6.7458051533916601e+00  6.4962877840175519e+00  6.2468274657134959e+00  5.9974140704990671e+00  5.7480378017783487e+00  5.4986891338361987e+00  5.2493587466623257e+00  5.0000374577826054e+00  4.7507161523087031e+00  4.5013857121312455e+00  4.2520369450456599e+00  4.0026137467961496e+00  4.0026605145961875e+00  3.7532468715524643e+00  7.7444157088502656e+00  7.4945810693165713e+00  7.2448493937088356e+00  6.9952083199273147e+00  6.7456461104052998e+00  6.4961516006411131e+00  6.2467141393429291e+00  5.9973235223287400e+00  5.7479699220403360e+00  5.4986438141118015e+00  5.2493359020377683e+00  5.0000370406669434e+00  4.7507381590136459e+00  4.5014055915485214e+00  4.5014301827290790e+00  4.2520668363088321e+00  4.2521039564993037e+00  4.0027501666330583e+00  3.7533592641693962e+00  7.4942987081229964e+00  7.7441094517819673e+00  7.2445929682677761e+00  6.9949791369059078e+00  6.7454449631868991e+00  6.4959789306983042e+00  6.2465701553474107e+00  5.9972082881541580e+00  5.7478834213618129e+00  5.4985859969346187e+00  5.2493067168131793e+00  5.0000376397556723e+00  5.0000364544257740e+00  4.7507661670016645e+00  4.5014868082461881e+00  4.2521892409385798e+00  4.0028641490101089e+00  7.4939765667221190e+00  7.2442991037329172e+00  6.9947155128478533e+00  6.7452128725401659e+00  6.4957791897993200e+00  6.2464032500536435e+00  5.9970744835318870e+00  5.7477828432338685e+00  5.4985186912099007e+00  5.2492726907578486e+00  5.0000357026896491e+00  4.7507986841396299e+00  7.2439809983539432e+00  6.9944291019369285e+00  6.7449599523925610e+00  6.4955609720562695e+00  6.2462205257586199e+00  5.9969901507459547e+00  5.9969277485089769e+00  5.7477200449891432e+00  5.7476723926471056e+00  5.4984771343236387e+00  5.4984446891417722e+00  5.2492352190324123e+00  6.9941301721927687e+00  6.7448043549095811e+00  6.7446951994160642e+00  6.4954280113112031e+00  6.4953319821321118e+00  6.2461101699089951e+00  6.2460283899029774e+00  5.9967731967329705e+00  5.7475558967854461e+00  5.4983665394397558e+00  5.2491955783893616e+00  6.7445429261470746e+00  6.7444264790374335e+00  6.9939566529893655e+00  6.4952013891512870e+00  6.4950990114094038e+00  6.2458325280879556e+00  5.9966153897719066e+00  6.7442842200034629e+00  6.7441605572778185e+00  6.9936661011116907e+00  6.4948679514618073e+00  6.2456379065900123e+00  6.7439031664867626e+00  6.4946438364947676e+00  8.2448387636552170e+00  8.2449109665948299e+00  7.9947289440165887e+00  7.9947961271799244e+00  7.7447463502470697e+00  7.7448080941359869e+00  7.4948787296697743e+00  7.4949348056787128e+00  7.2451139810774823e+00  7.2451642858350382e+00  6.9954403018990279e+00  6.9954848130766409e+00  6.7458462636210799e+00  6.7458850093106735e+00  6.4963208385675255e+00  6.4963538756133934e+00  6.2468533934894293e+00  6.2468807919434211e+00  5.9974336604599143e+00  5.9974554923560612e+00  5.7480516922797795e+00  5.7480680235466926e+00  5.4986978073852733e+00  5.4987086921092327e+00  5.2493625277484917e+00  5.2493680042623003e+00  5.0000365122500252e+00  5.0000366007057702e+00  4.7507104873418040e+00  4.7507051885618905e+00  4.5013751764178744e+00  4.5013644719283556e+00  4.2520212291214490e+00  4.2520050823696200e+00  4.0026391518133302e+00  4.0026175106695980e+00  3.7532192406097988e+00  3.7531920413643651e+00  3.5037515187889716e+00  7.9945467236004131e+00  7.7445778990057743e+00  7.4947250227070912e+00  7.2449755684717854e+00  6.9953174497899964e+00  6.7457390526763579e+00  6.4962292340567140e+00  6.2467772958037493e+00  5.9973729417553807e+00  5.7480062229838840e+00  5.4986674750672977e+00  5.2493472500254823e+00  5.0000362448191229e+00  4.7507252277962051e+00  4.5014049641538483e+00  4.2520661413314897e+00  4.0026992952477203e+00  3.7532947384373512e+00  3.5038424914511710e+00  3.2543322193794748e+00  7.7443265195828452e+00  7.4944944182002704e+00  7.2447670046509351e+00  6.9951316720917340e+00  6.7455764529581010e+00  6.4960899708887094e+00  6.2466613821310419e+00  5.9972803090400033e+00  5.7479367679393283e+00  5.4986210931272321e+00  5.2493238583445638e+00  5.0000357966447497e+00  4.7507477193254068e+00  4.5014504343990893e+00  4.2521346649897449e+00  4.0027909680375480e+00  3.7534096537771799e+00  3.5039807066259265e+00  7.4942060066215568e+00  7.7440138286161462e+00  7.2445049917323665e+00  6.9948974241607642e+00  6.7453708072957408e+00  6.4959134005023946e+00  6.2465141177324650e+00  5.9971624294205599e+00  5.7478482664820980e+00  5.4985619258211900e+00  5.2492939769885112e+00  5.0000351696954786e+00  4.7507763418911111e+00  4.5015083280889776e+00  4.2522218676162851e+00  4.0029075124535458e+00  3.7535555343410834e+00  3.5041558308380267e+00  7.4938769201803712e+00  7.2442046995731406e+00  6.9946279627833725e+00  6.7451335239529140e+00  6.4957091511320559e+00  6.2463434163576093e+00  5.9970255605704645e+00  5.7477453689559468e+00  5.4984930537466203e+00  5.2492591423637025e+00  5.0000343692523481e+00  4.7508095700368091e+00  4.5015525885657404e+00  4.5015755767659718e+00  4.2522882656738021e+00  4.2523231130817738e+00  4.0029963599930092e+00  4.0030426881406056e+00  3.7537244880511609e+00  7.2438796081910768e+00  6.9943351959401276e+00  6.7448749409343378e+00  6.4954860101298992e+00  6.2461565420391016e+00  5.9968754724079600e+00  5.7476323781944654e+00  5.4984173348712151e+00  5.2492207833165372e+00  5.0000347918619035e+00  5.0000334033426297e+00  4.7508459913949963e+00  4.5016493402378828e+00  4.2524341185687868e+00  4.0031907485048457e+00  3.7539092787551871e+00  6.9940296167907174e+00  6.7446042546170446e+00  6.4952518550567220e+00  6.2459600473994721e+00  5.9967173954719275e+00  5.7475132096393553e+00  5.4983373773391051e+00  5.2491802071182097e+00  5.0000337304992808e+00  5.0000322820933301e+00  4.7508843193672501e+00  6.7443295056934343e+00  6.9937203096085421e+00  6.4950136296622789e+00  6.2457597464262760e+00  5.9965559949954041e+00  5.7474367835658677e+00  5.7473913696634353e+00  5.4982865319230640e+00  5.4982555239112347e+00  5.2491549189148463e+00  5.2491385911095083e+00  5.0000310170653304e+00  4.7509234001127334e+00  6.4947773578211523e+00  6.7440576117125444e+00  6.2455607172812764e+00  5.9963953678917736e+00  5.7472699504081906e+00  5.4981738470962513e+00  5.2490969796059996e+00  5.0000296206209836e+00  6.4945481869565347e+00  6.7437944341150420e+00  6.2454487986384093e+00  6.2453673293057266e+00  5.9962390587106542e+00  6.4944309061776062e+00  6.4943304522365279e+00  6.7436590934010816e+00  6.2451832878868583e+00  5.9960900900818981e+00  6.4941277534813784e+00  6.2450116910549482e+00  7.9946653181361800e+00  7.9947335143669225e+00  7.7446827503502229e+00  7.7447454578232495e+00  7.4948166176591453e+00  7.4948735944078306e+00  7.2450546486962946e+00  7.2451057812815298e+00  6.9953848710277136e+00  6.9954301296940065e+00  6.7457956922360296e+00  6.7458350997343022e+00  6.4962759302577933e+00  6.4963095397062540e+00  6.2468148088023936e+00  6.2468426877460201e+00  5.9974019286990430e+00  5.9974241475574743e+00  5.7480272226910669e+00  5.7480438464079047e+00  5.4986808989368727e+00  5.4986919810384762e+00  5.2493533769302756e+00  5.2493589554650031e+00  5.0000352185012433e+00  5.0000353135138873e+00  4.7507170558637348e+00  4.7507116681971615e+00  4.5013895182545012e+00  4.5013786295812963e+00  4.2520431585057104e+00  4.2520267325917045e+00  4.0026683808908228e+00  4.0026463661916880e+00  3.7532553717774979e+00  3.7532277055812480e+00  3.5037606495014137e+00  3.5037940350345234e+00  7.9944803232065098e+00  7.7445116523816626e+00  7.4946604307045837e+00  7.2449139523875559e+00  6.9952599534943252e+00  6.7456866501330897e+00  6.4961827401672538e+00  6.2467373788692022e+00  5.9973401361972307e+00  5.7479809412745206e+00  5.4986500180880897e+00  5.2493378152903825e+00  5.0000349321812143e+00  4.7507320424005473e+00  4.5014198165230574e+00  4.2520888445817340e+00  4.0027295595438881e+00  3.7533321629186172e+00  3.5038865540034352e+00  3.2543822648091809e+00  7.7442562893358842e+00  7.4944260838299233e+00  7.2447019349530892e+00  6.9950710466291559e+00  6.7455212719532920e+00  6.4960410680965364e+00  6.2466194390143341e+00  5.9972458689113033e+00  5.7479102490403404e+00  5.4986027998819313e+00  5.2493139902402470e+00  5.0000344543715451e+00  4.7507549079469884e+00  4.5014660634459638e+00  4.2521585454729811e+00  4.0028228064871243e+00  3.7534490435270538e+00  3.5040271167092318e+00  3.2544937083813856e+00  3.2545464705738372e+00  3.0049377649828726e+00  3.0049960597488607e+00  7.4941329606485532e+00  7.2444355645890317e+00  6.9948328434021656e+00  6.7453121088650869e+00  6.4958614441568576e+00  6.2464696033897349e+00  5.9971259131105024e+00  5.7478201748954332e+00  5.4985425687110601e+00  5.2492835568972254e+00  5.0000337886520301e+00  4.7507840048630783e+00  4.5015249430858830e+00  4.2522472424425386e+00  4.0029413482097285e+00  3.7535974158851895e+00  3.5042052145549638e+00  3.2546978300065130e+00  3.2547540294055755e+00  3.0051703933092302e+00  3.0052325631833710e+00  2.7556288361934640e+00  7.4937984597609226e+00  7.2441302544222594e+00  6.9945588189228154e+00  6.7450707613357883e+00  6.4956536619661245e+00  6.2462959239371196e+00  5.9969866373136353e+00  5.7477154526558571e+00  5.4984724613088476e+00  5.2492480805201165e+00  5.0000329419114573e+00  4.7508177820651332e+00  4.5015933341034131e+00  4.2523502191893074e+00  4.0030788368735601e+00  3.7537692531590321e+00  3.5043582634421591e+00  3.5044110850283996e+00  3.2549332114965970e+00  3.2549933799405379e+00  3.0054378503037698e+00  3.0055044883599824e+00  2.7559319265924085e+00  7.2437997032002626e+00  6.9942610784910331e+00  6.7448077418342702e+00  6.4954266595351866e+00  6.2461057909504882e+00  5.9968339129610850e+00  5.7476004617608005e+00  5.4983953872548144e+00  5.2492090165497904e+00  5.0000319237541593e+00  4.7508548037538700e+00  4.5016683478824602e+00  4.2524631195187164e+00  4.0032294276444551e+00  3.7539571962796052e+00  3.5045792510133444e+00  3.5046358274579030e+00  3.2552540549617466e+00  3.0057997853047631e+00  2.7562599212798444e+00  6.9939502907976507e+00  7.2434558466639976e+00  6.7445324026405373e+00  6.4951884495679053e+00  6.2459058706703470e+00  5.9966730621875382e+00  5.7474791869181123e+00  5.4983140014513898e+00  5.2491676964152569e+00  5.0000307458287869e+00  4.7508937622233383e+00  4.5017270323066993e+00  4.5017473545375717e+00  4.2525509927608116e+00  4.2525819859517480e+00  4.0033464903017197e+00  4.0033878288283127e+00  3.7541033853990164e+00  3.7541546137700612e+00  3.5048109530764262e+00  3.5048714694713592e+00  3.2555267494735687e+00  6.7442529216660212e+00  6.9936356938885362e+00  6.4949460952363021e+00  6.2457020778225889e+00  5.9965088316654054e+00  5.7473551962295240e+00  5.4982306884164833e+00  5.2491253190913563e+00  5.0000294211410496e+00  4.7509334848935563e+00  4.5018063348551420e+00  4.5018279971047184e+00  4.2526702558640990e+00  4.2527032798999427e+00  4.0035052776432893e+00  4.0035493260625037e+00  3.7543010269801362e+00  3.7543556268879086e+00  3.5051109884584801e+00  3.2558033315972588e+00  6.7439763354604052e+00  6.4947057244120083e+00  6.2454995786041065e+00  5.9963453896871508e+00  5.7472316360728675e+00  5.4981475574277212e+00  5.2490829479988568e+00  5.0000279634039080e+00  4.7509622143535655e+00  4.7509729360860566e+00  4.5019081949986681e+00  4.2528238852628117e+00  4.0037097835468574e+00  3.7545551047514905e+00  3.5053482952359443e+00  6.4944725737881273e+00  6.7437086071758952e+00  6.2453028182011714e+00  5.9961863424866415e+00  5.7471516385738104e+00  5.7471112401387376e+00  5.4980664469688545e+00  5.2490415125413366e+00  5.0000263864655761e+00  4.7510112143293810e+00  4.5019861383696993e+00  6.4942510540737235e+00  6.2451155664248068e+00  5.9960347652562218e+00  5.7470387351321550e+00  5.7469963495475582e+00  5.4979889365877677e+00  6.2449409752526375e+00  5.9958932432929597e+00  5.7468889408611492e+00  5.4979163641590185e+00  6.2447816427320317e+00  5.9957639190546894e+00  7.7446367751953771e+00  7.7447001701274791e+00  7.9946883080340108e+00  7.4947716511895708e+00  7.4948292714661120e+00  7.2450116269208227e+00  7.2450633517412495e+00  6.9953446094544329e+00  6.9953904035769447e+00  6.7457588893350406e+00  6.7457987715172107e+00  6.4962431736163957e+00  6.4962771941494788e+00  6.2467865827385332e+00  6.2468148072306429e+00  5.9973786223355132e+00  5.9974011199298074e+00  5.7480091377091043e+00  5.7480259725468921e+00  5.4986682564167486e+00  5.4986794815508722e+00  5.2493463228465735e+00  5.2493519760735721e+00  5.0000338275739438e+00  5.0000339288377837e+00  4.7507213335777436e+00  4.7507158837356673e+00  4.5013994009563021e+00  4.5013883818088187e+00  4.2520585115738161e+00  4.2520418871607326e+00  4.0026889950645961e+00  4.0026667143289476e+00  3.7532809578243351e+00  3.7532529588584906e+00  3.5038242170461475e+00  3.5037904332735597e+00  3.2543082425616161e+00  7.7444637874421574e+00  7.4946136910613657e+00  7.2448692956188037e+00  6.9952182113063328e+00  6.7456485328995459e+0