<?xml version="1.0"?>
<VTKFile type="UnstructuredGrid"  version="0.1"  >
<UnstructuredGrid>
<Piece  NumberOfPoints="7611" NumberOfCells="38339">
<Points>
<DataArray  type="Float64"  NumberOfComponents="3"  format="ascii">0 0.2 0.25  0 0.225 0.25  0 0.225 0.275  0.025 0.225 0.275  0.025 0.25 0.275  0 0.25 0.275  0.025 0.25 0.3  0 0.25 0.3  0.05 0.25 0.3  0.025 0.275 0.3  0 0.275 0.3  0 0.275 0.275  0.05 0.275 0.3  0.025 0.3 0.3  0 0.3 0.3  0.025 0.275 0.325  0.025 0.25 0.325  0 0.25 0.325  0 0.275 0.325  0.05 0.275 0.325  0.05 0.25 0.325  0.075 0.275 0.325  0.025 0.3 0.325  0 0.3 0.325  0.05 0.3 0.325  0.075 0.3 0.325  0.025 0.325 0.325  0 0.325 0.325  0.05 0.325 0.325  0.025 0.275 0.35  0.025 0.25 0.35  0 0.25 0.35  0 0.275 0.35  0.05 0.275 0.35  0.05 0.25 0.35  0.075 0.275 0.35  0.15 0.25 0.325  0.15 0.25 0.35  0.175 0.25 0.35  0.175 0.275 0.35  0.15 0.275 0.35  0.025 0.3 0.35  0 0.3 0.35  0.05 0.3 0.35  0.075 0.3 0.35  0.1 0.275 0.325  0.1 0.3 0.325  0.1 0.3 0.35  0.1 0.275 0.35  0.125 0.275 0.325  0.125 0.3 0.325  0.125 0.3 0.35  0.125 0.275 0.35  0.15 0.3 0.35  0.025 0.325 0.35  0 0.325 0.35  0.05 0.325 0.35  0.075 0.325 0.325  0.075 0.325 0.35  0.1 0.325 0.35  0.125 0.325 0.35  0.15 0.325 0.35  0.025 0.35 0.325  0.025 0.35 0.35  0 0.35 0.325  0 0.35 0.35  0.05 0.35 0.325  0.05 0.35 0.35  0.075 0.35 0.35  0.1 0.35 0.35  0.025 0.375 0.35  0 0.375 0.35  0 0.375 0.325  0.05 0.375 0.35  0.075 0.375 0.35  0.025 0.4 0.35  0 0.4 0.35  0 0.4 0.325  0.025 0.425 0.35  0 0.425 0.35  0 0.425 0.325  0.025 0.45 0.35  0 0.45 0.35  0.025 0.275 0.375  0.025 0.25 0.375  0 0.25 0.375  0 0.275 0.375  0.05 0.275 0.375  0.075 0.275 0.375  0.175 0.275 0.375  0.15 0.275 0.375  0.2 0.275 0.35  0.2 0.275 0.375  0.275 0.25 0.35  0.3 0.25 0.35  0.3 0.25 0.375  0.3 0.275 0.375  0.275 0.25 0.375  0.275 0.275 0.375  0.275 0.275 0.35  0.325 0.25 0.375  0.325 0.275 0.375  0.025 0.3 0.375  0 0.3 0.375  0.05 0.3 0.375  0.075 0.3 0.375  0.1 0.3 0.375  0.1 0.275 0.375  0.125 0.3 0.375  0.125 0.275 0.375  0.15 0.3 0.375  0.175 0.3 0.35  0.175 0.3 0.375  0.2 0.3 0.35  0.2 0.3 0.375  0.225 0.275 0.35  0.225 0.3 0.35  0.225 0.3 0.375  0.225 0.275 0.375  0.25 0.275 0.35  0.25 0.3 0.35  0.25 0.3 0.375  0.25 0.275 0.375  0.275 0.3 0.35  0.275 0.3 0.375  0.3 0.3 0.375  0.025 0.325 0.375  0 0.325 0.375  0.05 0.325 0.375  0.075 0.325 0.375  0.1 0.325 0.375  0.125 0.325 0.375  0.15 0.325 0.375  0.175 0.325 0.375  0.2 0.325 0.375  0.225 0.325 0.375  0.25 0.325 0.375  0.275 0.325 0.375  0.3 0.325 0.375  0.025 0.35 0.375  0 0.35 0.375  0.05 0.35 0.375  0.075 0.35 0.375  0.1 0.35 0.375  0.125 0.35 0.35  0.125 0.35 0.375  0.15 0.35 0.35  0.15 0.35 0.375  0.175 0.35 0.375  0.025 0.375 0.375  0 0.375 0.375  0.05 0.375 0.375  0.075 0.375 0.375  0.1 0.375 0.35  0.1 0.375 0.375  0.125 0.375 0.375  0.15 0.375 0.375  0.175 0.375 0.375  0.025 0.4 0.375  0 0.4 0.375  0.05 0.4 0.35  0.05 0.4 0.375  0.075 0.4 0.35  0.075 0.4 0.375  0.1 0.4 0.375  0.125 0.4 0.375  0.025 0.425 0.375  0 0.425 0.375  0.05 0.425 0.375  0.075 0.425 0.375  0.1 0.425 0.375  0.025 0.45 0.375  0 0.45 0.375  0.05 0.45 0.375  0.025 0.475 0.375  0.05 0.475 0.375  0.025 0.275 0.4  0 0.275 0.4  0.05 0.275 0.4  0.25 0.25 0.375  0.275 0.275 0.4  0.275 0.25 0.4  0.25 0.25 0.4  0.25 0.275 0.4  0.3 0.275 0.4  0.3 0.25 0.4  0.325 0.275 0.4  0.325 0.25 0.4  0.35 0.275 0.4  0.025 0.3 0.4  0 0.3 0.4  0.05 0.3 0.4  0.075 0.3 0.4  0.075 0.275 0.4  0.1 0.3 0.4  0.1 0.275 0.4  0.125 0.3 0.4  0.125 0.275 0.4  0.15 0.3 0.4  0.15 0.275 0.4  0.175 0.3 0.4  0.175 0.275 0.4  0.2 0.3 0.4  0.2 0.275 0.4  0.225 0.3 0.4  0.225 0.275 0.4  0.25 0.3 0.4  0.275 0.3 0.4  0.3 0.3 0.4  0.325 0.3 0.4  0.35 0.3 0.4  0.025 0.325 0.4  0 0.325 0.4  0.05 0.325 0.4  0.075 0.325 0.4  0.1 0.325 0.4  0.125 0.325 0.4  0.15 0.325 0.4  0.175 0.325 0.4  0.2 0.325 0.4  0.225 0.325 0.4  0.25 0.325 0.4  0.275 0.325 0.4  0.3 0.325 0.4  0.325 0.325 0.4  0.025 0.35 0.4  0 0.35 0.4  0.05 0.35 0.4  0.075 0.35 0.4  0.1 0.35 0.4  0.125 0.35 0.4  0.15 0.35 0.4  0.175 0.35 0.4  0.2 0.35 0.375  0.2 0.35 0.4  0.225 0.35 0.4  0.25 0.35 0.4  0.275 0.35 0.4  0.3 0.35 0.4  0.325 0.35 0.4  0.025 0.375 0.4  0 0.375 0.4  0.05 0.375 0.4  0.075 0.375 0.4  0.1 0.375 0.4  0.125 0.375 0.4  0.15 0.375 0.4  0.175 0.375 0.4  0.2 0.375 0.4  0.225 0.375 0.4  0.025 0.4 0.4  0 0.4 0.4  0.05 0.4 0.4  0.075 0.4 0.4  0.1 0.4 0.4  0.125 0.4 0.4  0.15 0.4 0.375  0.15 0.4 0.4  0.175 0.4 0.4  0.2 0.4 0.4  0.025 0.425 0.4  0 0.425 0.4  0.05 0.425 0.4  0.075 0.425 0.4  0.1 0.425 0.4  0.125 0.425 0.4  0.15 0.425 0.4  0.175 0.425 0.4  0.025 0.45 0.4  0 0.45 0.4  0.05 0.45 0.4  0.075 0.45 0.375  0.075 0.45 0.4  0.1 0.45 0.4  0.125 0.45 0.4  0.025 0.475 0.4  0.05 0.475 0.4  0.075 0.475 0.375  0.075 0.475 0.4  0.1 0.475 0.4  0.075 0.5 0.4  0.1 0.5 0.4  0.275 0.275 0.425  0.275 0.25 0.425  0.3 0.275 0.425  0.3 0.25 0.425  0.325 0.275 0.425  0.325 0.25 0.425  0.35 0.275 0.425  0.025 0.3 0.425  0 0.3 0.425  0.05 0.3 0.425  0.075 0.3 0.425  0.075 0.275 0.425  0.1 0.3 0.425  0.1 0.275 0.425  0.125 0.3 0.425  0.125 0.275 0.425  0.15 0.3 0.425  0.15 0.275 0.425  0.175 0.3 0.425  0.175 0.275 0.425  0.2 0.3 0.425  0.2 0.275 0.425  0.225 0.3 0.425  0.225 0.275 0.425  0.25 0.3 0.425  0.25 0.275 0.425  0.275 0.3 0.425  0.3 0.3 0.425  0.325 0.3 0.425  0.35 0.3 0.425  0.375 0.3 0.425  0.025 0.325 0.425  0 0.325 0.425  0.05 0.325 0.425  0.075 0.325 0.425  0.1 0.325 0.425  0.125 0.325 0.425  0.15 0.325 0.425  0.175 0.325 0.425  0.2 0.325 0.425  0.225 0.325 0.425  0.25 0.325 0.425  0.275 0.325 0.425  0.3 0.325 0.425  0.325 0.325 0.425  0.35 0.325 0.4  0.35 0.325 0.425  0.375 0.325 0.425  0.025 0.35 0.425  0 0.35 0.425  0.05 0.35 0.425  0.075 0.35 0.425  0.1 0.35 0.425  0.125 0.35 0.425  0.15 0.35 0.425  0.175 0.35 0.425  0.2 0.35 0.425  0.225 0.35 0.425  0.25 0.35 0.425  0.275 0.35 0.425  0.3 0.35 0.425  0.325 0.35 0.425  0.35 0.35 0.4  0.35 0.35 0.425  0.375 0.35 0.425  0.025 0.375 0.425  0 0.375 0.425  0.05 0.375 0.425  0.075 0.375 0.425  0.1 0.375 0.425  0.125 0.375 0.425  0.15 0.375 0.425  0.175 0.375 0.425  0.2 0.375 0.425  0.225 0.375 0.425  0.25 0.375 0.4  0.25 0.375 0.425  0.275 0.375 0.4  0.275 0.375 0.425  0.3 0.375 0.4  0.3 0.375 0.425  0.325 0.375 0.425  0.35 0.375 0.425  0.375 0.375 0.425  0.025 0.4 0.425  0 0.4 0.425  0.05 0.4 0.425  0.075 0.4 0.425  0.1 0.4 0.425  0.125 0.4 0.425  0.15 0.4 0.425  0.175 0.4 0.425  0.2 0.4 0.425  0.225 0.4 0.4  0.225 0.4 0.425  0.25 0.4 0.4  0.25 0.4 0.425  0.275 0.4 0.425  0.3 0.4 0.425  0.325 0.4 0.425  0.025 0.425 0.425  0 0.425 0.425  0.05 0.425 0.425  0.075 0.425 0.425  0.1 0.425 0.425  0.125 0.425 0.425  0.15 0.425 0.425  0.175 0.425 0.425  0.2 0.425 0.4  0.2 0.425 0.425  0.225 0.425 0.4  0.225 0.425 0.425  0.25 0.425 0.425  0.275 0.425 0.425  0.025 0.45 0.425  0.05 0.45 0.425  0.075 0.45 0.425  0.1 0.45 0.425  0.125 0.45 0.425  0.15 0.45 0.4  0.15 0.45 0.425  0.175 0.45 0.4  0.175 0.45 0.425  0.2 0.45 0.425  0.225 0.45 0.425  0.25 0.45 0.425  0.025 0.475 0.425  0.05 0.475 0.425  0.075 0.475 0.425  0.1 0.475 0.425  0.125 0.475 0.4  0.125 0.475 0.425  0.15 0.475 0.4  0.15 0.475 0.425  0.175 0.475 0.4  0.175 0.475 0.425  0.2 0.475 0.425  0.075 0.5 0.425  0.1 0.5 0.425  0.125 0.5 0.425  0.15 0.5 0.425  0.175 0.5 0.425  0.2 0.5 0.425  0.3 0.275 0.45  0.3 0.25 0.45  0.275 0.275 0.45  0.325 0.275 0.45  0.325 0.25 0.45  0.35 0.275 0.45  0.1 0.3 0.45  0.125 0.3 0.45  0.15 0.3 0.45  0.175 0.3 0.45  0.175 0.275 0.45  0.2 0.3 0.45  0.2 0.275 0.45  0.225 0.3 0.45  0.225 0.275 0.45  0.25 0.3 0.45  0.25 0.275 0.45  0.275 0.3 0.45  0.3 0.3 0.45  0.325 0.3 0.45  0.35 0.3 0.45  0.375 0.3 0.45  0.025 0.325 0.45  0 0.3 0.45  0 0.325 0.45  0.05 0.325 0.45  0.075 0.325 0.45  0.075 0.3 0.45  0.1 0.325 0.45  0.125 0.325 0.45  0.15 0.325 0.45  0.175 0.325 0.45  0.2 0.325 0.45  0.225 0.325 0.45  0.25 0.325 0.45  0.275 0.325 0.45  0.3 0.325 0.45  0.325 0.325 0.45  0.35 0.325 0.45  0.375 0.325 0.45  0.4 0.325 0.45  0.025 0.35 0.45  0 0.35 0.45  0.05 0.35 0.45  0.075 0.35 0.45  0.1 0.35 0.45  0.125 0.35 0.45  0.15 0.35 0.45  0.175 0.35 0.45  0.2 0.35 0.45  0.225 0.35 0.45  0.25 0.35 0.45  0.275 0.35 0.45  0.3 0.35 0.45  0.325 0.35 0.45  0.35 0.35 0.45  0.375 0.35 0.45  0.4 0.325 0.425  0.4 0.35 0.425  0.4 0.35 0.45  0.425 0.35 0.45  0.025 0.375 0.45  0 0.375 0.45  0.05 0.375 0.45  0.075 0.375 0.45  0.1 0.375 0.45  0.125 0.375 0.45  0.15 0.375 0.45  0.175 0.375 0.45  0.2 0.375 0.45  0.225 0.375 0.45  0.25 0.375 0.45  0.275 0.375 0.45  0.3 0.375 0.45  0.325 0.375 0.45  0.35 0.375 0.45  0.375 0.375 0.45  0.4 0.375 0.425  0.4 0.375 0.45  0.425 0.375 0.45  0.025 0.4 0.45  0 0.4 0.45  0.05 0.4 0.45  0.075 0.4 0.45  0.1 0.4 0.45  0.125 0.4 0.45  0.15 0.4 0.45  0.175 0.4 0.45  0.2 0.4 0.45  0.225 0.4 0.45  0.25 0.4 0.45  0.275 0.4 0.45  0.3 0.4 0.45  0.325 0.4 0.45  0.35 0.4 0.425  0.35 0.4 0.45  0.375 0.4 0.425  0.375 0.4 0.45  0.4 0.4 0.45  0.425 0.4 0.45  0.025 0.425 0.45  0.05 0.425 0.45  0.075 0.425 0.45  0.1 0.425 0.45  0.125 0.425 0.45  0.15 0.425 0.45  0.175 0.425 0.45  0.2 0.425 0.45  0.225 0.425 0.45  0.25 0.425 0.45  0.275 0.425 0.45  0.3 0.425 0.45  0.325 0.425 0.425  0.325 0.425 0.45  0.35 0.425 0.425  0.35 0.425 0.45  0.375 0.425 0.425  0.375 0.425 0.45  0.4 0.425 0.45  0.025 0.45 0.45  0.05 0.45 0.45  0.075 0.45 0.45  0.1 0.45 0.45  0.125 0.45 0.45  0.15 0.45 0.45  0.175 0.45 0.45  0.2 0.45 0.45  0.225 0.45 0.45  0.25 0.45 0.45  0.275 0.45 0.45  0.3 0.45 0.45  0.35 0.45 0.45  0.375 0.45 0.45  0.4 0.45 0.45  0.05 0.475 0.45  0.075 0.475 0.45  0.1 0.475 0.45  0.125 0.475 0.45  0.15 0.475 0.45  0.175 0.475 0.45  0.2 0.475 0.45  0.225 0.475 0.425  0.225 0.475 0.45  0.25 0.475 0.45  0.275 0.475 0.45  0.075 0.5 0.45  0.1 0.5 0.45  0.125 0.5 0.45  0.15 0.5 0.45  0.175 0.5 0.45  0.2 0.5 0.45  0.225 0.5 0.45  0.25 0.5 0.45  0.125 0.525 0.45  0.15 0.525 0.425  0.15 0.525 0.45  0.125 0.525 0.425  0.175 0.525 0.425  0.175 0.525 0.45  0.2 0.525 0.45  0.225 0.525 0.45  0.15 0.55 0.425  0.15 0.55 0.45  0.175 0.55 0.425  0.175 0.55 0.45  0.2 0.55 0.45  0.175 0.575 0.45  0.2 0.575 0.45  0.3
[...]
<PointData  Scalars="f_8"> 
<DataArray  type="Float64"  Name="f_8"  format="ascii">1.0000000000000000e+01  9.9999999999999982e+00  1.0000000000000000e+01  9.7479160465983110e+00  9.7478182183293178e+00  1.0000000000000000e+01  9.7477437381224608e+00  9.9999999999999982e+00  9.4959765592328047e+00  9.7476513497246309e+00  1.0000000000000000e+01  1.0000000000000000e+01  9.4958099286202131e+00  9.7475690071056480e+00  9.9999999999999982e+00  9.7475823514997249e+00  9.7476783939049945e+00  1.0000000000000000e+01  9.9999999999999982e+00  9.4956845045213516e+00  9.4958577153997599e+00  9.2442343518342334e+00  9.7474967006817614e+00  1.0000000000000000e+01  9.4955294056302382e+00  9.2440250409435389e+00  9.7474214523946792e+00  1.0000000000000000e+01  9.4953926902121548e+00  9.7475228807796999e+00  9.7476220903479192e+00  1.0000000000000000e+01  1.0000000000000002e+01  9.4955760940337264e+00  9.4957550186507476e+00  9.2440870424642068e+00  8.4923043493626569e+00  8.4921040835213759e+00  8.2418948577286297e+00  8.2415548445232041e+00  8.4917707358099790e+00  9.7474343550823566e+00  1.0000000000000000e+01  9.4954157973354274e+00  9.2438707235488771e+00  8.9931689644341262e+00  8.9929194371252041e+00  8.9927342561312855e+00  8.9929921341468688e+00  8.7424337817543858e+00  8.7421566151136556e+00  8.7419495771501570e+00  8.7422360183618633e+00  8.4914671756949200e+00  9.7473565443660881e+00  1.0000000000000000e+01  9.4952744405372140e+00  9.2438399015250710e+00  9.2436793146076059e+00  8.9925052872049598e+00  8.7416943784361401e+00  8.4911958278520263e+00  9.7473565443660863e+00  9.7472893998812360e+00  1.0000000000000000e+01  1.0000000000000002e+01  9.4952744405372123e+00  9.4951521337297589e+00  9.2435132387431747e+00  8.9923060580959149e+00  9.7472328286947327e+00  1.0000000000000000e+01  1.0000000000000000e+01  9.4950488617954711e+00  9.2433726903949278e+00  9.7471867192462067e+00  1.0000000000000000e+01  1.0000000000000002e+01  9.7471509597164445e+00  9.9999999999999982e+00  1.0000000000000000e+01  9.7471254511355134e+00  1.0000000000000002e+01  9.7474728223131315e+00  9.7475747092387444e+00  9.9999999999999982e+00  1.0000000000000000e+01  9.4954846316911325e+00  9.2439624647664438e+00  8.2413692358393167e+00  8.4915910083841162e+00  7.9915525696320264e+00  7.9913661423091975e+00  7.2428289135763286e+00  6.9933855624884700e+00  6.9932406452882958e+00  6.9929678320107787e+00  7.2426717323546770e+00  7.2423733029002335e+00  7.2425385519385612e+00  6.7439031664867626e+00  6.7436590934010816e+00  9.7473818609766951e+00  1.0000000000000000e+01  9.4953199251799543e+00  9.2437401915672730e+00  8.9925772415544003e+00  8.9928422252936375e+00  8.7417736077376453e+00  8.7420679527710270e+00  8.4912790587662332e+00  8.2412440583554591e+00  8.2410498463037740e+00  7.9912429647671219e+00  7.9910479530222087e+00  7.7417330093512193e+00  7.7414316191190338e+00  7.7412403706479544e+00  7.7415501299981146e+00  7.4920694150475233e+00  7.4917820372335457e+00  7.4915984268891744e+00  7.4918937954053062e+00  7.2422698991262742e+00  7.2420971712478606e+00  6.9927148229355494e+00  9.7473018750333686e+00  1.0000000000000000e+01  9.4951746231160907e+00  9.2435434460505679e+00  8.9923418926405159e+00  8.7415112998689217e+00  8.4910001518609466e+00  8.2407633942707488e+00  7.9907617377361095e+00  7.7409609772012633e+00  7.4913313461266382e+00  7.2418469172767139e+00  6.9924850556729030e+00  9.7472328286947381e+00  1.0000000000000000e+01  9.4950488617954729e+00  9.2433726903949314e+00  8.9921370602436870e+00  8.7414716974255313e+00  8.7412823657265797e+00  8.4909583989832971e+00  8.4907560642355566e+00  8.2405120427281009e+00  9.7471746376789010e+00  9.9999999999999982e+00  9.4949426440213180e+00  9.2432281463307167e+00  8.9921370602436870e+00  8.9919632720626108e+00  8.7410876812963707e+00  8.4905480223180358e+00  8.2402973380131215e+00  9.7471271959337500e+00  1.0000000000000002e+01  9.4949645397895459e+00  9.4948558966442125e+00  9.2432577208317070e+00  9.2431098835821786e+00  8.9918208173643741e+00  8.7409277980513576e+00  9.7470903949442373e+00  9.9999999999999982e+00  9.4947885123893467e+00  9.2430178847888946e+00  8.9917098329123331e+00  9.7470641375743217e+00  1.0000000000000002e+01  9.4947403800004722e+00  9.7470483477420355e+00  9.4947114054025370e+00  9.7474320530079819e+00  1.0000000000000000e+01  9.4954100036843609e+00  7.4922138383910131e+00  7.2422361979205627e+00  7.2425413048317910e+00  7.4920754966296332e+00  7.4917483169418855e+00  6.9928412751722417e+00  6.9931202113868816e+00  6.7435448680217043e+00  6.7437944341150420e+00  6.4943304522365279e+00  9.7473390975444669e+00  1.0000000000000000e+01  9.4952416825938144e+00  9.2436334603013819e+00  9.2438606199012341e+00  8.9924486064663007e+00  8.9927194287726060e+00  8.7416291610965704e+00  8.7419300086537266e+00  8.4911243406097654e+00  8.4914432010295595e+00  8.2408898119618339e+00  8.2412162972965444e+00  7.9908869654481274e+00  7.9912122435102626e+00  7.7410822136828585e+00  7.7413988921147441e+00  7.4914463348000622e+00  7.2419538697234609e+00  6.9925825770283794e+00  6.7433129444791469e+00  6.4941277534813784e+00  9.7472573276834211e+00  1.0000000000000002e+01  9.4950931414603748e+00  9.2434323284566631e+00  8.9922080074663580e+00  8.7413609961729293e+00  8.4908391986010088e+00  8.2405969477162468e+00  7.9905943345699741e+00  7.7407965492509030e+00  7.4911732518720671e+00  7.2416979851380860e+00  6.9923476344037798e+00  6.7431019367967213e+00  9.7471867192462049e+00  1.0000000000000000e+01  9.4949645397895477e+00  9.2432577208317088e+00  8.9919985578350925e+00  8.7411269035210921e+00  8.4905896116896766e+00  8.2403399328683822e+00  7.9905099659345691e+00  7.9903368889642783e+00  7.7405446499162727e+00  7.4909319300287782e+00  7.2414714162128968e+00  6.9921392354338900e+00  6.7429144646006609e+00  9.7471271959337482e+00  1.0000000000000002e+01  9.4948558966442143e+00  9.2431098835821803e+00  8.9918208173643759e+00  8.7409277980513540e+00  8.4903768509524085e+00  8.2401203628277262e+00  7.9901164924577905e+00  7.7403285765930327e+00  9.7470786569789496e+00  1.0000000000000000e+01  9.4947671499035273e+00  9.2429889033452941e+00  8.9916750979453326e+00  8.7407642591111117e+00  8.4903768509524067e+00  8.4902017736539310e+00  8.2399393563713978e+00  7.9899344881914089e+00  9.7470409972092824e+00  1.0000000000000002e+01  9.4946981994908839e+00  9.2428947740830090e+00  8.9915615518074716e+00  8.7406366357810672e+00  8.4900649400143546e+00  8.2397976779634146e+00  9.7470141214850106e+00  1.0000000000000000e+01  9.4946489386258293e+00  9.2429520926623230e+00  9.2428274457636803e+00  8.9914802364158088e+00  8.7405451252297777e+00  9.7469979548239642e+00  9.4946192758240766e+00  9.2429124433001437e+00  9.2427868588323872e+00  8.9914311607742210e+00  9.2427729671265233e+00  8.9914143163870932e+00  7.2421282931557229e+00  7.2424386458948158e+00  6.9927415326776501e+00  6.9930252836763032e+00  6.7434547176227966e+00  6.7437086071758952e+00  6.4942510540737235e+00  9.7473059484155744e+00  1.0000000000000000e+01  9.4951809428512686e+00  9.2435504787833818e+00  9.2437814499637874e+00  8.9923484385478396e+00  8.9926238197849528e+00  8.7415165022439201e+00  8.7418224324305243e+00  8.4910034792673965e+00  8.4913277470793851e+00  8.2407646019833845e+00  8.2410966452260990e+00  7.9907608167349515e+00  7.9910916528775120e+00  7.7409580985536701e+00  7.7412802074248948e+00  7.4913268069431833e+00  7.4916339848073639e+00  7.2418410923445942e+00  6.9924783569100111e+00  6.7432187690000696e+00  6.4940448281000229e+00  6.2449409752526375e+00  9.7472227876969431e+00  1.0000000000000000e+01  9.4950298740801173e+00  9.2433459208348712e+00  8.9921037348264701e+00  8.7412437535581535e+00  8.4907134528228898e+00  8.2404667096335391e+00  7.9904631502443157e+00  7.7406675073668092e+00  7.4910490041319324e+00  7.2415807761101476e+00  6.9922393374171730e+00  6.7430040928275474e+00  6.4939430378859004e+00  6.4938568948518229e+00  6.2447816427320317e+00  9.7471509597164374e+00  9.9999999999999982e+00  9.4948990530254704e+00  9.2431683006829868e+00  8.9918906708566695e+00  8.7410056190921566e+00  8.4904595530509965e+00  8.2402052491519484e+00  7.9902012466735703e+00  7.7404112411378216e+00  7.4908034939712413e+00  7.2413502704391748e+00  6.9920273132765960e+00  6.7428133556137100e+00  6.4937786830204001e+00  6.4936896738080243e+00  6.2446396785987366e+00  9.7470903949442302e+00  9.9999999999999982e+00  9.4947885123893467e+00  9.2430178847888982e+00  8.9917098329123366e+00  8.7408030456777297e+00  8.4902430874580688e+00  8.2399818558195985e+00  7.9899770120200015e+00  7.7401914040846931e+00  7.4907245481569227e+00  7.4905924986418997e+00  7.2412763790536188e+00  7.2411518336366090e+00  6.9919595556212384e+00  6.9918445000946789e+00  6.7426486576082771e+00  6.4935450853200489e+00  6.2445167679241207e+00  9.7470409972092860e+00  1.0000000000000002e+01  9.4946981994908857e+00  9.2428947740830125e+00  8.9915615518074805e+00  8.7406366357810725e+00  8.4900649400143546e+00  8.2397976779634128e+00  7.9897918209875254e+00  7.7401498452882294e+00  7.7400095449138941e+00  7.4905527352266690e+00  7.4904176800659021e+00  7.2409871767318377e+00  6.9916925946003072e+00  6.7425116214904932e+00  9.7470026643398313e+00  1.0000000000000000e+01  9.4946280205657079e+00  9.2427989722779547e+00  8.9914459929031896e+00  8.7405067547653719e+00  8.4899256899934432e+00  8.2396535013715955e+00  7.9897918209875201e+00  7.9896466414056331e+00  7.7400095449138968e+00  7.7398667765856821e+00  7.4902802514958342e+00  7.2408575645131359e+00  9.7469753030612072e+00  9.4945778728715791e+00  9.2427304357249653e+00  8.9913632224233897e+00  8.7404136108313679e+00  8.4899667012414035e+00  8.4898257016855592e+00  8.2396958312591337e+00  8.2395498445091579e+00  7.9895421307924455e+00  7.7397638705741798e+00  7.4901810665455404e+00  9.7469588394697695e+00  9.4945476673377414e+00  9.2426891087797927e+00  8.9913132548434778e+00  8.7404898291275241e+00  8.7403573126493423e+00  8.4899072635556578e+00  8.4897651897196624e+00  8.2396341278451342e+00  8.2394870285842856e+00  7.9894787081913021e+00  9.2426749473492702e+00  8.9912960846182646e+00  8.7403379082024166e+00  8.4897442634177054e+00  8.2394652255023288e+00  7.9894566037391863e+00  6.9926693704390903e+00  6.9929565996390668e+00  7.2420503417591799e+00  6.7433893894868691e+00  6.7436464053554017e+00  6.4941934110583830e+00  8.9922767550462002e+00  8.7414357742134392e+00  8.4909167584856959e+00  8.2406746407070361e+00  8.2410106846816902e+00  7.9906700592619995e+00  7.9910048998112160e+00  7.7408686837095892e+00  7.7411947084893447e+00  7.4912405794861670e+00  7.4915515073138463e+00  7.2417596210623589e+00  6.9924029571889523e+00  6.7431505278227961e+00  6.4939846297016768e+00  6.2448895259823844e+00  9.7471981547877764e+00  1.0000000000000000e+01  9.9999999999999982e+00  9.4949847016440572e+00  9.2432841516423938e+00  9.2434911702467168e+00  8.9920291009000977e+00  8.7411597280459183e+00  8.4906232153045433e+00  8.2403731251127876e+00  7.9903687610349943e+00  7.7405745362794569e+00  7.4909593668605785e+00  7.2414961004985736e+00  6.9921609873007062e+00  6.7429331943327107e+00  6.4937943633230972e+00  6.2447282087830622e+00  5.9957201525670181e+00  9.7471254511355152e+00  1.0000000000000002e+01  9.4948522858539519e+00  9.2431043652145863e+00  8.9918134358750610e+00  8.7409186825736533e+00  8.4903662067992656e+00  8.2401084575809254e+00  7.9901036388875530e+00  7.7403151146427094e+00  7.4907108278385657e+00  7.2412627455246188e+00  6.9919463371165893e+00  6.7427400898183212e+00  6.4936250620648757e+00  6.2445844737410781e+00  5.9957639190546894e+00  5.9956485414726339e+00  5.9956033303999083e+00  5.7466680776718064e+00  9.7470641375743234e+00  1.0000000000000002e+01  9.4947403800004757e+00  9.2429520926623301e+00  8.9916303660205443e+00  8.7407136083687256e+00  8.4901470674778245e+00  8.2398823028633359e+00  7.9898766299173829e+00  7.7400925548968180e+00  7.4904972164295360e+00  7.2410618454382059e+00  6.9917612516778593e+00  6.7425733417589058e+00  6.4934786707369767e+00  6.2444600271341599e+00  5.9955485145249714e+00  5.9955020495757037e+00  5.7465908720056937e+00  9.7470141214850123e+00  1.0000000000000000e+01  9.4946489386258310e+00  9.2428274457636821e+00  8.9914802364158124e+00  8.7405451252297794e+00  8.4899667012414000e+00  8.2396958312591320e+00  7.9896891322272445e+00  7.7399084299315701e+00  7.4903202188799298e+00  7.2408951351120470e+00  6.9916074504918209e+00  6.7424345940147532e+00  6.4934246239454296e+00  6.4933567030081001e+00  6.2444142300054182e+00  6.2443562048935624e+00  5.9954174284298833e+00  5.7465262420177536e+00  9.7469753030612019e+00  9.4945778728715791e+00  9.2427304357249653e+00  8.9913632224233950e+00  8.7404136108313679e+00  8.4898257016855574e+00  8.2395498445091562e+00  7.9895421307924455e+00  7.7397638705741807e+00  7.4901810665455404e+00  7.2407638971949115e+00  6.9914862176826391e+00  6.7424034690013501e+00  6.7423250843635518e+00  6.4933294226267257e+00  6.4932603063528411e+00  6.2443330704912681e+00  6.2442740253630893e+00  5.9953503232616194e+00  9.7469475905331819e+00  9.4945270831895794e+00  9.2426610238698039e+00  8.9912793970103237e+00  8.7403192817886186e+00  8.4897244430050574e+00  8.2394448722245102e+00  7.9894362952190594e+00  7.7396596609951080e+00  7.4900806259940769e+00  7.2406690447594881e+00  6.9913984757876797e+00  6.4931903163688887e+00  6.2442142338236977e+00  5.9953013633457761e+00  9.4944964824542613e+00  9.2426191576432277e+00  8.9912287789097398e+00  8.7402622521564748e+00  8.4896631462390868e+00  8.2393812428969948e+00  7.9893720525154128e+00  7.7397013277595086e+00  7.7395963105007324e+00  7.4900194675283229e+00  7.2406111847970784e+00  9.2426047946097949e+00  8.9912113648969640e+00  8.7402425728897679e+00  8.4896419242840953e+00  8.2393591325289375e+00  7.9893496373320447e+00  7.7395741035009298e+00  7.4899979132586481e+00  8.7402602545942951e+00  8.4897629524903593e+00  8.4896608079876312e+00  8.7403554071655698e+00  8.2394844858092373e+00  8.2393785929861849e+00  7.9893691214266056e+00  7.7395931289876048e+00  8.4898212154085400e+00  8.4897197546604950e+00  8.2395447478607604e+00  8.2394395613121283e+00  7.9894304234096509e+00  8.2395418504196360e+00  7.9895332991335222e+00  6.7433493885599889e+00  6.7436083155652842e+00  6.9929146550422514e+00  6.9926253026188485e+00  6.4941579983112483e+00  7.9906150445093385e+00  7.7408143965627954e+00  7.4911881370168558e+00  7.2417099760247359e+00  7.2420028452446568e+00  7.4915013512563915e+00  6.9923569107862136e+00  6.7431087440730391e+00  6.4939476503481153e+00  6.2448577850668991e+00  9.7471833514849369e+00  9.9999999999999982e+00  8.9919840960589621e+00  8.9922335416168728e+00  9.2432469490175517e+00  8.7411089960953348e+00  8.7413870460682794e+00  8.4905686607050548e+00  8.4908643427736550e+00  8.2403164684778538e+00  8.2406201897061866e+00  7.9903115334310328e+00  7.7405180801837448e+00  7.4909048426208891e+00  7.2414444969839966e+00  6.9921131354160266e+00  6.7428897821540534e+00  6.4937559517628403e+00  6.2446952468731620e+00  5.9956929916357709e+00  9.7471101165086100e+00  1.0000000000000000e+01  9.4948241418016774e+00  9.2430658462278359e+00  8.9917668492208858e+00  8.7408661788587843e+00  8.4903097584783946e+00  8.2400498456113507e+00  7.9900444471249834e+00  7.7402567310936181e+00  7.4906544515674538e+00  7.2412093978601115e+00  6.9918968757859670e+00  6.7426952247298191e+00  6.4935853716129710e+00  6.2445504206969735e+00  5.9955752766407704e+00  5.7466462971798897e+00  9.7470483477420338e+00  1.0000000000000000e+01  9.4947114054025370e+00  9.2429124433001455e+00  8.9915824194555860e+00  8.7406595796644879e+00  8.4900889873264997e+00  8.2398220040849797e+00  7.9898157419013724e+00  7.7400325050686982e+00  7.4904392375054059e+00  7.2410069870735487e+00  6.9917103951047936e+00  6.7425272160989564e+00  6.4934378698364075e+00  6.2444250259605596e+00  5.9954732194104716e+00  5.7465684938489421e+00  9.7469979548239642e+00  9.9999999999999982e+00  9.4946192758240766e+00  9.2427868588323996e+00  8.9914311607742317e+00  8.7404898291275259e+00  8.4899072635556632e+00  8.2396341278451324e+00  7.9896268303736218e+00  7.7398469899792746e+00  7.4902609017388659e+00  7.2408390142529697e+00  6.9915554269791587e+00  6.7423874132411079e+00  6.4933149719543053e+00  6.2443204089334090e+00  5.9953879468981111e+00  5.7465033619452335e+00  5.4976536432506036e+00  9.7469588394697677e+00  9.4945476673377431e+00  9.2426891087797998e+00  8.9913132548434884e+00  8.7403573126493441e+00  8.4897651897196642e+00  8.2394870285842856e+00  7.9894787081912977e+00  7.7397013277595059e+00  7.4901206868666570e+00  7.2407067731342272e+00  6.9914332661859699e+00  6.7422770638947540e+00  6.4932178344785800e+00  6.2442375958712510e+00  5.9953203220192970e+00  5.7464515743423368e+00  5.4976181555072774e+00  9.4944964824542630e+00  9.2426191576432366e+00  8.9912287789097434e+00  8.7402622521564748e+00  8.4896631462390850e+00  8.2393812428969948e+00  7.9893720525154093e+00  7.7395963105007288e+00  7.4900194675283167e+00  7.2406111847970731e+00  6.9913448429960461e+00  6.7422457086886576e+00  6.7421970712073254e+00  6.4931472996236055e+00  6.2441773378676242e+00  5.9952709789242391e+00  5.7464136272475743e+00  9.2425769548577978e+00  8.9911777544262232e+00  8.7402047651220425e+00  8.4896013582024370e+00  8.2393171038588768e+00  7.9893072953528028e+00  7.7395324527865679e+00  7.4899578194373149e+00  7.2405528616287844e+00  6.9912907808344693e+00  6.7421480443343080e+00  6.4931039384708287e+00  6.2441401464925033e+00  5.9952403512002705e+00  5.7463898611504760e+00  8.9911601796609997e+00  8.7401849043991895e+00  8.4895799407775367e+00  8.2392947900654114e+00  7.9892846742025334e+00  7.7395100420533884e+00  7.4899360678242601e+00  7.2405906631039461e+00  7.2405321525525395e+00  6.9912714373461089e+00  8.7402026811991007e+00  8.4895989255481030e+00  8.2393143542345157e+00  7.9893042617693792e+00  7.7395291683098542e+00  7.4899543161900484e+00  7.2405491700220690e+00  6.9912869290360797e+00  8.4896582691142743e+00  8.2393757326115544e+00  7.9893659758003182e+00  7.7396532903499828e+00  7.7395897340402113e+00  7.4900124559485031e+00  8.2394787355934120e+00  7.9894695694058528e+00  7.7396914445807798e+00  7.4901101571685098e+00  7.9896146015394320e+00  7.7398337787173404e+00  6.7433350065422166e+00  6.9926096245397957e+00  6.4941450916695587e+00  7.2416924536656877e+00  7.2419860896758612e+00  6.9923405235606682e+00  6.7430937197364269e+00  6.4939341755179694e+00  6.2448460100089687e+00  8.7410915885287856e+00  8.9919687022362904e+00  8.4905498766556509e+00  8.4908463145485147e+00  8.2402968858292844e+00  8.2406013883247233e+00  7.9902916683189043e+00  7.9905959652388781e+00  7.7404983868472002e+00  7.7407954756539983e+00  7.4908857151260584e+00  7.4911697532486219e+00  7.2414262724066205e+00  6.9920960980541311e+00  6.7428741683606566e+00  6.4937419550318811e+00  6.2446830228676360e+00  5.9956826629065940e+00  9.7471049067993416e+00  1.0000000000000002e+01  9.4948145568327291e+00  8.9917508957647954e+00  8.7408481431164180e+00  8.4902903014932036e+00  8.2400295664522769e+00  7.9900238805319121e+00  7.7402363474144851e+00  7.4906346586217385e+00  7.2411905443009275e+00  6.9918792555171363e+00  6.7426790819548295e+00  6.4935709061374833e+00  6.2445377931642589e+00  5.9955646134410001e+00  5.7466376948326898e+00  9.7470429767836926e+00  1.0000000000000000e+01  9.4947015256746141e+00  9.2428988882917409e+00  9.2430526931791341e+00  8.9915659814132312e+00  8.7406409993229346e+00  8.4900689462373133e+00  8.2398011196514584e+00  7.9897945650251794e+00  7.7400115201471928e+00  7.4904188644027432e+00  7.2409875846253833e+00  6.9916922657010199e+00  6.7425106109101778e+00  6.4934229942959947e+00  6.2444120451733287e+00  5.9954622632220769e+00  5.7465596613699113e+00  9.7469924490799578e+00  9.4946091494560836e+00  9.2427729671265340e+00  8.9914143163871003e+0